GRID

SPECGRID
  3  2  1   1  F  /

COORD
        0.0        -0.0       0.0      0.0        -0.0       1.0   
       	1.0        -0.0       0.0      1.2        -0.0       1.0
       	2.0        -0.0       0.0      2.0        -0.0       1.0
       	3.0        -0.0       0.0      3.0        -0.0       1.0
        0.0         1.0       0.0      0.0         1.0       1.0
       	1.0         1.0       0.0      0.8         1.0       1.0
        2.0         1.0       0.0      2.0         1.0       1.0
        3.0         1.0       0.0      3.0         1.0       1.0
        0.0         2.0       0.0      0.0         2.0       1.0
        1.0         2.0       0.0      1.0         2.0       1.0
        2.0         2.0       0.0      2.0         2.0       1.0
        3.0         2.0       0.0      3.0         2.0       1.0
  /

ZCORN
-- cell1  cell1    cell2   cell2   cell3   cell3
    0.5     0.5     0.0     0.0     0.0     0.0 
    
-- cell1  cell1    cell2   cell2   cell3   cell3
    0.2     0.2     0.0     0.0     0.0     0.0 

-- cell4  cell4    cell5   cell5   cell6   cell6
    0.0     0.0     0.0     0.0     0.0     0.0 
    
-- cell4  cell4    cell5   cell5   cell6   cell6
    0.0     0.0     0.0     0.0     0.0     0.0 

     1.0      1.0      1.0      1.0      1.0      1.0 

     1.0      1.0      1.0      1.0      1.0      1.0 
     1.0      1.0      1.0      1.0      1.0      1.0 

     1.0      1.0      1.0      1.0      1.0      1.0 

  /

ACTNUM
1 1 1 
1 1 1 
  /

PORO


0.6 0.6 


0.6 0.6 


0.6 0.6 

  / 
  
  
PERMX


100 100 


100 100 


100 100 

  / 
  
PERMY


100 100 


100 100 


100 100 

  / 

PERMZ


100 100 


100 100 


100 100 

  / 

BOX
 1 2 2 2 1 1 /
 
 PORO 2*0.2 /  
 
ENDBOX


/

END