GRID

SPECGRID
  10  16  3   1  F  /

COORD
   456719.738   5935677.371    1734.553    456719.738   5935677.371    1771.988
   457053.317   5935869.963    1735.117    457053.317   5935869.963    1772.622
   457386.896   5936062.555    1740.327    457386.896   5936062.555    1777.913
   457720.475   5936255.147    1744.384    457720.475   5936255.147    1782.057
   457969.890   5936399.147    1739.891    457969.891   5936399.147    1777.630
   458219.305   5936543.146    1733.753    458219.305   5936543.146    1771.558
   458980.965   5936982.891    1738.165    458986.001   5936985.799    1776.190
   459742.625   5937422.636    1759.657    459752.696   5937428.451    1797.633
   460504.285   5937862.380    1792.770    460622.414   5937930.583    2007.979
   461329.415   5938338.770    1927.308    461344.553   5938347.510    1963.436
   462058.671   5938759.806    1920.723    462066.692   5938764.437    1960.148
   456913.707   5935341.409    1731.402    456913.707   5935341.409    1768.753
   457246.740   5935534.107    1732.191    457247.938   5935533.860    1769.584
   457579.740   5935726.750    1735.933    457582.122   5935726.404    1773.375
   457912.650   5935919.280    1736.249    457916.237   5935919.089    1773.768
   458161.423   5936063.012    1740.339    458166.416   5936063.315    1777.934
   458409.922   5936206.615    1743.844    458416.625   5936207.754    1781.514
   459160.315   5936639.306    1733.242    459171.852   5936643.686    1771.174
   459911.346   5937072.108    1735.773    459929.162   5937082.001    1774.251
   460653.360   5937500.493    1765.758    460777.635   5937572.024    2005.114
   461470.675   5937972.688    1915.398    461489.635   5937983.483    1954.718
   462156.864   5938371.839    1921.194    462174.242   5938380.267    1960.356
   457107.674   5935005.447    1718.126    457107.674   5935005.447    1755.448
   457440.051   5935198.360    1723.853    457442.455   5935197.717    1761.158
   457772.463   5935391.103    1733.307    457777.201   5935390.157    1770.655
   458104.889   5935583.595    1732.012    458111.934   5935582.849    1769.400
   458353.118   5935727.228    1735.947    458362.534   5935727.216    1773.398
   458601.216   5935870.602    1735.117    458613.267   5935871.842    1772.623
   459337.415   5936295.144    1721.514    459354.686   5936300.411    1757.754
   460072.371   5936717.337    1707.880    460097.523   5936731.412    1744.856
   460802.241   5937138.506    1743.165    460921.417   5937207.312    1978.261
   461530.582   5937559.014    1734.379    461661.578   5937634.645    1973.935
   462277.524   5937990.261    1922.691    462293.819   5937999.669    1961.187
   457254.750   5934750.705    1717.600    457254.750   5934750.705    1754.929
   457586.467   5934944.000    1716.926    457590.189   5934942.594    1754.229
   457918.367   5935136.847    1721.669    457925.448   5935134.931    1758.934
   458250.276   5935329.379    1730.841    458260.696   5935327.582    1768.079
   458498.140   5935473.060    1733.218    458511.663   5935471.900    1770.609
   458746.090   5935616.301    1732.772    458762.543   5935616.658    1770.196
   459476.261   5936037.236    1721.565    459499.499   5936042.753    1757.926
   460203.366   5936453.090    1717.816    460239.417   5936473.904    1755.366
   460931.165   5936873.267    1725.752    460957.694   5936888.619    1766.163
   461650.412   5937288.542    1742.091    461763.399   5937353.775    1926.319
   462376.942   5937708.004    1920.016    462392.226   5937716.828    1953.486
   457638.588   5934085.878    1721.200    457638.588   5934085.878    1758.484
   457970.296   5934278.725    1719.184    457974.077   5934278.176    1756.514
   458302.162   5934471.432    1721.149    458309.719   5934470.622    1758.482
   458633.628   5934663.962    1719.129    458645.020   5934663.345    1756.468
   458882.073   5934806.678    1716.494    458897.107   5934806.564    1753.822
   459130.151   5934949.176    1714.117    459148.568   5934949.951    1750.517
   459786.945   5935351.274    1620.900    459810.869   5935355.513    1654.637
   460494.501   5935748.086    1631.553    460584.186   5935777.917    1733.583
   461263.818   5936176.117    1719.215    461295.256   5936189.946    1762.065
   461939.941   5936566.295    1744.298    462018.903   5936605.886    1859.418
   462610.679   5936953.208    1867.563    462630.446   5936963.781    1898.623
   458022.426   5933421.051    1682.170    458022.426   5933421.051    1718.970
   458353.179   5933614.186    1699.486    458356.984   5933613.357    1736.445
   458684.715   5933807.085    1708.739    458692.424   5933805.589    1745.777
   459017.229   5933999.749    1720.491    459029.095   5933997.903    1757.703
   459269.150   5934141.457    1710.159    459284.947   5934139.554    1746.657
   459514.904   5934283.404    1678.875    459533.822   5934281.896    1712.598
   460161.277   5934689.513    1613.533    460226.481   5934693.009    1694.420
   460829.963   5935074.851    1577.648    460933.527   5935100.386    1702.250
   461625.328   5935498.679    1708.385    461655.475   5935510.372    1749.929
   462305.878   5935886.376    1747.700    462336.702   5935902.314    1790.551
   462903.998   5936219.882    1777.543    462922.832   5936230.438    1801.219
   458406.264   5932756.224    1678.603    458406.264   5932756.224    1714.275
   458736.432   5932950.404    1670.036    458739.827   5932948.669    1706.173
   459066.150   5933144.810    1666.434    459073.100   5933141.357    1702.910
   459401.459   5933336.588    1705.439    459412.544   5933331.410    1743.104
   459655.159   5933476.552    1720.832    459669.966   5933470.208    1757.392
   459900.012   5933619.164    1694.369    459918.878   5933612.299    1730.490
   460564.290   5934034.699    1633.508    460606.441   5934032.300    1692.374
   461290.258   5934435.778    1658.490    461317.382   5934439.910    1699.310
   462024.490   5934846.799    1701.590    462049.808   5934856.071    1742.329
   462751.548   5935263.587    1730.961    462775.344   5935277.479    1769.990
   463463.043   5935662.950    1703.647    463481.826   5935673.888    1731.891
   458790.102   5932091.397    1682.164    458790.102   5932091.397    1716.604
   459122.342   5932285.318    1688.983    459124.763   5932282.615    1723.507
   459454.167   5932479.986    1681.458    459459.071   5932474.216    1716.207
   459787.144   5932673.968    1686.682    459794.533   5932664.376    1721.525
   460035.900   5932820.382    1710.051    460046.032   5932805.336    1745.566
   460287.943   5932960.159    1735.046    460302.581   5932934.806    1775.457
   460958.941   5933387.647    1634.665    460993.378   5933375.355    1699.637
   461677.729   5933780.779    1645.868    461698.483   5933781.249    1688.203
   462423.047   5934196.272    1696.668    462445.304   5934204.080    1742.067
   463195.407   5934644.393    1735.442    463225.310   5934663.983    1796.337
   464058.107   5935146.221    1691.623    464076.080   5935156.662    1728.746
   459173.940   5931426.571    1679.832    459173.940   5931426.571    1714.071
   459506.953   5931620.081    1693.233    459508.332   5931617.723    1726.774
   459840.104   5931813.446    1694.686    459842.799   5931808.699    1728.035
   460172.699   5932008.002    1682.914    460176.653   5932000.690    1717.347
   460423.067   5932151.143    1683.072    460427.955   5932141.385    1718.089
   460675.977   5932289.192    1706.923    460681.649   5932277.108    1743.373
   461367.042   5932711.135    1663.911    461376.741   5932703.347    1701.714
   462070.164   5933116.555    1657.076    462081.516   5933114.848    1697.100
   462798.174   5933530.178    1696.759    462814.525   5933535.983    1741.571
   463559.803   5933973.528    1741.333    463583.792   5933990.299    1793.083
   464411.751   5934443.327    1747.081    464432.402   5934455.389    1770.996
   459557.778   5930761.743    1683.800    459557.778   5930761.743    1718.165
   459891.067   5930955.265    1690.009    459891.679   5930953.355    1724.880
   460224.392   5931148.761    1690.558    460225.540   5931144.979    1725.500
   460557.736   5931342.362    1690.219    460559.292   5931336.676    1726.058
   460808.833   5931485.064    1680.673    460810.574   5931477.545    1717.173
   461060.717   5931624.826    1697.554    461062.452   5931615.524    1734.374
   461753.973   5932037.625    1682.769    461756.001   5932027.562    1721.836
   462449.763   5932447.307    1666.317    462451.857   5932440.919    1728.865
   463152.039   5932852.473    1691.343    463162.168   5932855.646    1734.644
   463863.995   5933274.279    1739.236    463883.114   5933287.070    1783.747
   464502.298   5933663.094    1713.350    464522.711   5933675.299    1734.618
   459941.616   5930096.917    1698.696    459941.616   5930096.917    1735.343
   460275.157   5930290.098    1698.117    460275.272   5930288.580    1734.762
   460608.696   5930483.615    1689.515    460608.868   5930480.593    1726.717
   460942.301   5930676.904    1689.438    460942.403   5930672.479    1726.556
   461193.394   5930818.861    1685.528    461193.287   5930813.054    1723.394
   461444.599   5930960.733    1680.930    461444.127   5930953.627    1719.504
   462132.862   5931363.999    1702.140    462131.742   5931356.269    1741.808
   462827.767   5931778.187    1656.299    462820.043   5931765.801    1731.125
   463514.138   5932175.696    1663.464    463518.239   5932174.926    1703.961
   464187.343   5932569.838    1609.118    464231.636   5932590.397    1762.878
   464864.197   5932967.987    1621.000    464903.579   5932991.063    1688.448
   460325.454   5929432.090    1685.185    460325.454   5929432.090    1723.004
   460659.116   5929625.385    1687.100    460658.982   5929624.156    1725.363
   460992.827   5929818.910    1679.048    460992.518   5929816.469    1717.891
   461326.474   5930011.669    1691.652    461325.906   5930008.061    1730.919
   461577.193   5930154.698    1691.652    461576.305   5930150.007    1730.919
   461827.790   5930297.072    1699.479    461826.488   5930291.297    1740.096
   462508.269   5930692.900    1719.838    462506.088   5930686.096    1760.134
   463199.926   5931106.042    1653.667    463188.699   5931086.301    1747.867
   463881.504   5931501.607    1635.989    463879.548   5931485.481    1775.353
   464564.276   5931901.442    1631.390    464583.937   5931895.162    1698.750
   465303.567   5932328.267    1640.011    465357.307   5932303.097    1718.793
   460709.292   5928767.263    1687.100    460709.292   5928767.263    1725.363
   461043.021   5928960.613    1679.048    461042.830   5928959.611    1717.891
   461376.711   5929153.653    1691.652    461376.297   5929151.695    1730.919
   461710.372   5929346.466    1702.911    461709.684   5929343.610    1742.547
   461960.447   5929489.829    1724.354    461959.477   5929486.143    1764.308
   462210.557   5929633.446    1735.859    462209.279   5929628.955    1776.131
   462880.392   5930020.458    1752.806    462878.779   5930015.187    1793.488
   463553.320   5930411.556    1732.883    463551.009   5930405.197    1774.217
   464235.818   5930818.812    1648.924    464230.159   5930795.909    1781.079
   464894.962   5931201.479    1650.471    464927.546   5931187.698    1785.880
   465550.998   5931569.138    1703.797    465576.993   5931570.737    1728.324
   461093.130   5928102.436    1679.048    461093.130   5928102.436    1717.891
   461426.749   5928295.486    1691.652    461426.670   5928294.568    1730.919
   461760.418   5928488.444    1702.911    461760.158   5928486.796    1742.547
   462094.118   5928681.345    1724.354    462093.615   5928679.079    1764.308
   462343.666   5928825.599    1735.859    462342.897   5928822.823    1776.131
   462593.234   5928969.798    1753.007    462592.157   5928966.622    1793.498
   463251.349   5929349.989    1735.588    463250.679   5929346.591    1776.488
   463909.762   5929730.487    1724.274    463908.902   5929726.254    1765.486
   464569.273   5930111.554    1770.186    464566.041   5930105.371    1811.602
   465282.384   5930521.102    1666.069    465220.687   5930485.482    1822.478
   465943.882   5930903.018    1720.548    465963.740   5930914.483    1757.516
   461240.589   5927847.030    1691.652    461240.589   5927847.030    1730.919
   461574.209   5928039.912    1702.911    461574.127   5928039.332    1742.547
   461907.843   5928232.760    1724.354    461907.651   5928231.667    1764.308
   462241.488   5928425.564    1735.859    462241.163   5928424.045    1776.131
   462490.995   5928569.755    1753.007    462490.484   5928567.853    1793.498
   462740.505   5928713.936    1752.929    462739.804   5928711.672    1793.494
   463407.397   5929099.084    1729.152    463408.200   5929097.450    1770.032
   464074.625   5929484.483    1743.912    464076.259   5929482.981    1785.238
   464743.280   5929870.445    1786.706    464742.892   5929867.948    1828.143
   465473.015   5930290.621    1692.185    465408.094   5930253.138    1850.354
   466146.239   5930679.307    1740.797    466163.916   5930689.513    1769.656
   461439.367   5927502.738    1695.753    461439.367   5927502.738    1735.154
   461772.968   5927695.449    1724.354    461772.919   5927695.166    1764.308
   462106.590   5927888.252    1724.354    462106.487   5927887.718    1764.308
   462440.180   5928080.884    1753.007    462440.025   5928080.141    1793.498
   462689.641   5928224.983    1752.933    462689.393   5928224.042    1793.494
   462939.091   5928369.069    1752.806    462938.772   5928367.954    1793.488
   463615.092   5928759.508    1726.709    463617.474   5928759.822    1767.774
   464291.172   5929149.726    1754.430    464296.137   5929151.333    1798.410
   464971.088   5929542.427    1773.062    464976.527   5929544.522    1814.470
   465674.544   5929947.995    1849.215    465676.810   5929949.148    1887.224
   466388.343   5930361.368    1749.557    466406.677   5930372.100    1790.683
   461638.144   5927158.446    1702.911    461638.144   5927158.446    1742.547
   461971.722   5927351.038    1724.354    461971.722   5927351.038    1764.308
   462305.301   5927543.629    1735.859    462305.301   5927543.629    1776.131
   462638.880   5927736.221    1753.007    462638.880   5927736.221    1793.498
   462888.294   5927880.220    1752.806    462888.294   5927880.220    1793.488
   463137.709   5928024.220    1735.588    463137.709   5928024.220    1776.488
   463823.033   5928419.893    1724.274    463827.107   5928422.244    1765.486
   464508.359   5928815.565    1770.186    464516.505   5928820.269    1811.602
   465193.684   5929211.238    1776.024    465205.903   5929218.292    1817.817
   465879.009   5929606.911    1744.374    465895.301   5929616.317    1781.315
   466564.333   5930002.583    1745.617    466584.699   5930014.341    1818.414
  /

ZCORN
   1734.553    1735.117    1735.117    1740.327    1740.327    1744.384 
   1744.384    1739.891    1739.891    1733.753    1733.753    1738.165 
   1738.165    1759.657    1759.657    1792.770    1967.436    1927.308 
   1927.308    1920.724 
   1731.402    1732.191    1732.191    1735.933    1735.933    1736.249 
   1736.249    1740.339    1740.339    1743.844    1743.844    1733.242 
   1733.242    1735.773    1735.773    1765.758    1951.906    1915.398 
   1915.398    1921.194 
   1731.402    1732.191    1732.191    1735.933    1735.933    1736.249 
   1736.249    1740.339    1740.339    1743.844    1743.844    1733.242 
   1733.242    1735.773    1735.773    1765.758    1951.906    1915.398 
   1915.398    1921.194 
   1718.126    1723.853    1723.853    1733.307    1733.307    1732.012 
   1732.012    1735.947    1735.947    1735.117    1735.117    1721.514 
   1721.514    1707.880    1707.880    1743.165    1954.021    1941.093 
   1941.093    1922.691 
   1718.126    1723.853    1723.853    1733.307    1733.307    1732.012 
   1732.012    1735.947    1735.947    1735.117    1735.117    1721.514 
   1721.514    1707.880    1707.880    1743.165    1743.165    1734.379 
   1941.093    1922.691 
   1717.600    1716.926    1716.926    1721.669    1721.669    1730.841 
   1730.841    1733.219    1733.219    1732.772    1732.772    1721.565 
   1721.565    1717.816    1717.816    1725.752    1725.752    1742.091 
   1912.833    1920.016 
   1717.600    1716.926    1716.926    1721.669    1721.669    1730.841 
   1730.841    1733.219    1733.219    1732.772    1732.772    1721.565 
   1721.565    1717.816    1717.816    1725.752    1725.752    1742.091 
   1912.833    1920.016 
   1721.200    1719.184    1719.184    1721.149    1721.149    1719.129 
   1719.129    1716.494    1716.494    1714.117    1714.117    1620.900 
   1620.900    1631.553    1696.754    1719.215    1719.215    1744.298 
   1827.421    1867.563 
   1721.200    1719.184    1719.184    1721.149    1721.149    1719.129 
   1719.129    1716.494    1716.494    1714.117    1714.117    1620.900 
   1620.900    1631.553    1696.754    1719.215    1719.215    1744.298 
   1827.421    1867.563 
   1682.170    1699.486    1699.486    1708.739    1708.739    1720.491 
   1720.491    1710.159    1710.159    1678.875    1678.875    1613.533 
   1613.533    1577.648    1663.921    1708.385    1708.385    1747.700 
   1750.516    1777.543 
   1682.170    1699.486    1699.486    1708.739    1708.739    1720.491 
   1720.491    1710.159    1710.159    1678.875    1678.875    1613.533 
   1659.201    1663.921    1663.921    1708.385    1708.385    1747.700 
   1750.516    1777.543 
   1678.603    1670.036    1670.036    1666.434    1666.434    1705.439 
   1705.439    1720.832    1720.832    1694.369    1694.369    1633.508 
   1656.513    1658.490    1658.490    1701.590    1701.590    1743.876 
   1730.961    1703.647 
   1678.603    1670.036    1670.036    1666.434    1666.434    1705.439 
   1705.439    1720.832    1720.832    1694.369    1694.369    1633.508 
   1656.513    1658.490    1658.490    1701.590    1701.590    1743.876 
   1730.961    1703.647 
   1682.164    1688.983    1688.983    1681.458    1681.458    1686.682 
   1686.682    1710.051    1710.051    1735.046    1735.046    1634.665 
   1663.985    1645.868    1645.868    1696.668    1696.668    1741.211 
   1735.442    1691.623 
   1682.164    1688.983    1688.983    1681.458    1681.458    1686.682 
   1686.682    1710.051    1710.051    1735.046    1735.046    1663.985 
   1663.985    1645.868    1645.868    1696.668    1696.668    1741.211 
   1735.442    1691.623 
   1679.832    1693.233    1693.233    1694.686    1694.686    1682.914 
   1682.914    1683.072    1683.072    1706.923    1706.923    1663.911 
   1663.911    1657.076    1657.076    1696.759    1696.759    1742.716 
   1741.333    1747.081 
   1679.832    1693.233    1693.233    1694.686    1694.686    1682.914 
   1682.914    1683.072    1683.072    1706.923    1706.923    1663.911 
   1663.911    1657.076    1657.076    1696.759    1696.759    1742.716 
   1741.333    1747.081 
   1683.800    1690.009    1690.009    1690.558    1690.558    1690.219 
   1690.219    1680.673    1680.673    1697.554    1697.554    1667.275 
   1667.275    1666.317    1666.317    1691.344    1691.344    1739.236 
   1739.236    1713.350 
   1683.800    1690.009    1690.009    1690.558    1690.558    1690.219 
   1690.219    1680.673    1680.673    1697.554    1697.554    1667.275 
   1667.275    1691.986    1666.317    1691.344    1691.344    1739.236 
   1739.236    1713.350 
   1698.696    1698.117    1698.117    1689.515    1689.515    1689.438 
   1689.438    1685.528    1685.528    1680.930    1680.930    1702.141 
   1702.141    1689.979    1656.299    1663.464    1663.464    1661.547 
   1725.750    1655.221 
   1698.696    1698.117    1698.117    1689.515    1689.515    1689.438 
   1689.438    1685.528    1685.528    1680.930    1680.930    1702.141 
   1702.141    1689.979    1656.299    1663.464    1663.464    1661.547 
   1609.118    1621.000 
   1685.185    1687.100    1687.100    1679.048    1679.048    1691.652 
   1691.652    1691.652    1691.652    1699.479    1699.479    1719.839 
   1719.839    1708.360    1653.667    1635.989    1635.989    1654.802 
   1631.390    1640.011 
   1685.185    1687.100    1687.100    1679.048    1679.048    1691.652 
   1691.652    1691.652    1691.652    1699.479    1699.479    1719.839 
   1719.839    1708.360    1708.360    1735.994    1635.989    1654.802 
   1654.802    1682.425 
   1687.100    1679.048    1679.048    1691.652    1691.652    1702.911 
   1702.911    1724.354    1724.354    1735.859    1735.859    1752.806 
   1752.806    1732.883    1732.883    1741.527    1648.924    1650.471 
   1650.471    1703.797 
   1687.100    1679.048    1679.048    1691.652    1691.652    1702.911 
   1702.911    1724.354    1724.354    1735.859    1735.859    1752.806 
   1752.806    1732.883    1732.883    1741.527    1741.527    1750.970 
   1650.471    1703.797 
   1679.048    1691.652    1691.652    1702.911    1702.911    1724.354 
   1724.354    1735.859    1735.859    1753.007    1753.007    1735.588 
   1735.588    1724.274    1724.274    1770.186    1770.186    1790.901 
   1666.069    1720.548 
   1679.048    1691.652    1691.652    1702.911    1702.911    1724.354 
   1724.354    1735.859    1735.859    1753.007    1753.007    1735.588 
   1735.588    1724.274    1724.274    1770.186    1770.186    1790.901 
   1666.069    1720.548 
   1691.652    1702.911    1702.911    1724.354    1724.354    1735.859 
   1735.859    1753.007    1753.007    1752.929    1752.929    1729.152 
   1729.152    1743.912    1743.912    1786.706    1786.706    1825.957 
   1692.185    1740.797 
   1691.652    1702.911    1702.911    1724.354    1724.354    1735.859 
   1735.859    1753.007    1753.007    1752.929    1752.929    1729.152 
   1729.152    1743.912    1743.912    1786.706    1786.706    1825.957 
   1692.185    1740.797 
   1695.753    1724.354    1724.354    1724.354    1724.354    1753.007 
   1753.007    1752.933    1752.933    1752.806    1752.806    1726.709 
   1726.709    1754.430    1754.430    1773.062    1773.062    1844.805 
   1844.805    1749.557 
   1695.753    1724.354    1724.354    1724.354    1724.354    1753.007 
   1753.007    1752.933    1752.933    1752.806    1752.806    1726.709 
   1726.709    1754.430    1754.430    1773.062    1773.062    1844.805 
   1844.805    1749.557 
   1702.911    1724.354    1724.354    1735.859    1735.859    1753.007 
   1753.007    1752.806    1752.806    1735.588    1735.588    1724.274 
   1724.274    1770.186    1770.186    1776.024    1776.024    1744.375 
   1744.375    1745.617 
   1747.031    1747.619    1747.619    1752.855    1752.855    1756.942 
   1756.942    1752.471    1752.471    1746.354    1746.354    1750.840 
   1750.840    1772.316    1772.316    1801.944    1980.951    1939.350 
   1939.350    1933.865 
   1743.853    1744.655    1744.655    1748.414    1748.414    1748.755 
   1748.755    1752.871    1752.871    1756.401    1756.401    1745.886 
   1745.886    1748.599    1748.599    1776.700    1969.642    1928.505 
   1928.505    1934.248    1743.853    1744.655    1744.655    1748.414 
   1748.414    1748.755    1748.755    1752.871    1752.871    1756.401 
   1756.401    1745.886    1745.886    1748.599    1748.599    1776.700 
   1969.642    1928.505    1928.505    1934.248 
   1730.566    1736.288    1736.288    1745.756    1745.756    1744.475 
   1744.475    1748.431    1748.431    1747.619    1747.619    1733.594 
   1733.594    1720.205    1720.205    1756.982    1962.101    1952.040 
   1952.040    1935.523    1730.566    1736.288    1736.288    1745.756 
   1745.756    1744.475    1744.475    1748.431    1748.431    1747.619 
   1747.619    1733.594    1733.594    1720.205    1720.205    1756.982 
   1756.982    1753.744    1952.040    1935.523 
   1730.043    1729.360    1729.360    1734.091    1734.091    1743.254 
   1743.254    1745.682    1745.682    1745.247    1745.247    1733.686 
   1733.686    1730.332    1730.332    1739.222    1739.222    1752.360 
   1917.329    1931.173    1730.043    1729.360    1729.360    1734.091 
   1734.091    1743.254    1743.254    1745.682    1745.682    1745.247 
   1745.247    1733.686    1733.686    1730.332    1730.332    1739.222 
   1739.222    1752.360    1917.329    1931.173 
   1733.628    1731.628    1731.628    1733.593    1733.593    1731.575 
   1731.575    1728.937    1728.937    1726.251    1726.251    1632.146 
   1632.146    1645.145    1709.030    1733.498    1733.498    1761.784 
   1838.086    1877.916    1733.628    1731.628    1731.628    1733.593 
   1733.593    1731.575    1731.575    1728.937    1728.937    1726.251 
   1726.251    1632.146    1632.146    1645.145    1709.030    1733.498 
   1733.498    1761.784    1838.086    1877.916 
   1694.437    1711.806    1711.806    1721.085    1721.085    1732.895 
   1732.895    1722.325    1722.325    1690.116    1690.116    1625.952 
   1625.952    1590.614    1676.697    1722.234    1722.234    1761.984 
   1759.646    1785.435    1694.437    1711.806    1711.806    1721.085 
   1721.085    1732.895    1732.895    1722.325    1722.325    1690.116 
   1690.116    1625.952    1670.941    1676.697    1676.697    1722.234 
   1722.234    1761.984    1759.646    1785.435 
   1690.494    1682.082    1682.082    1678.593    1678.593    1717.994 
   1717.994    1733.019    1733.019    1706.409    1706.409    1645.696 
   1668.467    1672.097    1672.097    1715.170    1715.170    1752.581 
   1730.961    1713.062    1690.494    1682.082    1682.082    1678.593 
   1678.593    1717.994    1717.994    1733.019    1733.019    1706.409 
   1706.409    1645.696    1668.467    1672.097    1672.097    1715.170 
   1715.170    1752.581    1730.961    1713.062 
   1693.644    1700.491    1700.491    1693.041    1693.041    1698.296 
   1698.296    1721.889    1721.889    1748.516    1748.516    1647.532 
   1675.869    1659.980    1659.980    1711.801    1711.801    1759.586 
   1736.326    1703.997    1693.644    1700.491    1700.491    1693.041 
   1693.041    1698.296    1698.296    1721.889    1721.889    1748.516 
   1748.516    1675.869    1675.869    1659.980    1659.980    1711.801 
   1711.801    1759.586    1736.326    1703.997 
   1691.245    1704.413    1704.413    1705.803    1705.803    1694.392 
   1694.392    1694.744    1694.744    1719.073    1719.073    1676.512 
   1676.512    1670.417    1670.417    1711.696    1711.696    1759.505 
   1752.406    1755.053    1691.245    1704.413    1704.413    1705.803 
   1705.803    1694.392    1694.392    1694.744    1694.744    1719.073 
   1719.073    1676.512    1676.512    1670.417    1670.417    1711.696 
   1711.696    1759.505    1752.406    1755.053 
   1695.255    1701.633    1701.633    1702.206    1702.206    1702.166 
   1702.166    1692.840    1692.840    1709.828    1709.828    1680.662 
   1680.662    1679.758    1679.758    1705.777    1705.777    1754.073 
   1742.164    1720.440    1695.255    1701.633    1701.633    1702.206 
   1702.206    1702.166    1702.166    1692.840    1692.840    1709.828 
   1709.828    1680.662    1680.662    1704.279    1679.758    1705.777 
   1705.777    1754.073    1742.164    1720.440 
   1710.912    1710.332    1710.332    1701.916    1701.916    1701.811 
   1701.811    1698.150    1698.150    1693.788    1693.788    1715.363 
   1715.363    1703.694    1670.577    1676.963    1676.963    1674.974 
   1738.126    1666.296    1710.912    1710.332    1710.332    1701.916 
   1701.916    1701.811    1701.811    1698.150    1698.150    1693.788 
   1693.788    1715.363    1715.363    1703.694    1670.577    1676.963 
   1676.963    1674.974    1626.212    1632.140 
   1697.791    1699.854    1699.854    1691.995    1691.995    1704.741 
   1704.741    1704.741    1704.741    1713.018    1713.018    1733.270 
   1733.270    1721.529    1668.588    1652.540    1652.540    1669.452 
   1645.994    1652.111    1697.791    1699.854    1699.854    1691.995 
   1691.995    1704.741    1704.741    1704.741    1704.741    1713.018 
   1713.018    1733.270    1733.270    1721.529    1721.529    1749.114 
   1652.540    1669.452    1669.452    1694.548 
   1699.854    1691.995    1691.995    1704.741    1704.741    1716.123 
   1716.123    1737.672    1737.672    1749.283    1749.283    1766.367 
   1766.367    1746.661    1746.661    1754.711    1666.027    1666.010 
   1666.010    1711.973    1699.854    1691.995    1691.995    1704.741 
   1704.741    1716.123    1716.123    1737.672    1737.672    1749.283 
   1749.283    1766.367    1766.367    1746.661    1746.661    1754.711 
   1754.711    1762.607    1666.010    1711.973 
   1691.995    1704.741    1704.741    1716.123    1716.123    1737.672 
   1737.672    1749.283    1749.283    1766.504    1766.504    1749.221 
   1749.221    1738.012    1738.012    1783.991    1783.991    1801.427 
   1680.864    1732.871    1691.995    1704.741    1704.741    1716.123 
   1716.123    1737.672    1737.672    1749.283    1749.283    1766.504 
   1766.504    1749.221    1749.221    1738.012    1738.012    1783.991 
   1783.991    1801.427    1680.864    1732.871 
   1704.741    1716.123    1716.123    1737.672    1737.672    1749.283 
   1749.283    1766.504    1766.504    1766.451    1766.451    1742.779 