--NOECHO
--PINCH
--/
--MAPUNITS
 --'        '
--/
--MAPAXES
--   0.00000000E+00  -0.10000000E+01   0.00000000E+00   0.00000000E+00
--   0.10000000E+01   0.00000000E+00
--/
--GRIDUNIT
-- '        ' '        '
--/

SPECGRID
38 1 16 1 F
/
COORD
   0.00000000E+00  -0.53000002E+01  -0.17441141E-08   0.00000000E+00
  -0.53000002E+01   0.95000000E+01
   0.11188274E+00  -0.52995458E+01  -0.17441141E-08   0.15354168E+00
  -0.53004880E+01   0.95000000E+01
   0.22376548E+00  -0.52990913E+01  -0.17441141E-08   0.30708337E+00
  -0.53009758E+01   0.95000000E+01
   0.44753096E+00  -0.52981820E+01  -0.17441141E-08   0.61416674E+00
  -0.53019509E+01   0.95000000E+01
   0.89506191E+00  -0.52963638E+01  -0.17441141E-08   0.12283335E+01
  -0.53039017E+01   0.95000000E+01
   0.17901238E+01  -0.52927270E+01  -0.17441141E-08   0.24566669E+01
  -0.53078036E+01   0.95000000E+01
   0.35789688E+01  -0.52853689E+01  -0.17441141E-08   0.49158325E+01
  -0.53156953E+01   0.95000000E+01
   0.53687181E+01  -0.52776022E+01  -0.17441141E-08   0.73739562E+01
  -0.53239951E+01   0.95000000E+01
   0.71608634E+01  -0.52689853E+01  -0.17441141E-08   0.98289652E+01
  -0.53331432E+01   0.94999990E+01
   0.80595684E+01  -0.52637868E+01  -0.17441141E-08   0.11052977E+02
  -0.53386049E+01   0.95000000E+01
   0.89582729E+01  -0.52585883E+01  -0.17441141E-08   0.12276989E+02
  -0.53440666E+01   0.95000000E+01
   0.94104652E+01  -0.52550526E+01  -0.17441141E-08   0.12885192E+02
  -0.53477321E+01   0.95000000E+01
   0.98626575E+01  -0.52515163E+01  -0.17441141E-08   0.13493395E+02
  -0.53513975E+01   0.95000000E+01
   0.10088754E+02  -0.52497482E+01  -0.17441141E-08   0.13797496E+02
  -0.53532305E+01   0.94999990E+01
   0.10314850E+02  -0.52479801E+01  -0.17441141E-08   0.14101597E+02
  -0.53550630E+01   0.95000000E+01
   0.10427898E+02  -0.52470961E+01  -0.17441141E-08   0.14253648E+02
  -0.53559790E+01   0.95000000E+01
   0.10540947E+02  -0.52462120E+01  -0.17441141E-08   0.14405699E+02
  -0.53568954E+01   0.95000000E+01
   0.10597471E+02  -0.52457700E+01  -0.17441141E-08   0.14481724E+02
  -0.53573537E+01   0.95000000E+01
   0.10653996E+02  -0.52453279E+01  -0.17441141E-08   0.14557749E+02
  -0.53578119E+01   0.94999990E+01
   0.10710520E+02  -0.52448859E+01  -0.17441141E-08   0.14633774E+02
  -0.53582702E+01   0.95000000E+01
   0.10767043E+02  -0.52444439E+01  -0.17441141E-08   0.14709800E+02
  -0.53587284E+01   0.95000000E+01
   0.10840683E+02  -0.52450047E+01  -0.17441141E-08   0.14752598E+02
  -0.53581424E+01   0.95000000E+01
   0.10914322E+02  -0.52455654E+01  -0.17441141E-08   0.14795397E+02
  -0.53575563E+01   0.95000000E+01
   0.10987961E+02  -0.52461262E+01  -0.17441141E-08   0.14838196E+02
  -0.53569708E+01   0.95000000E+01
   0.11061600E+02  -0.52466869E+01  -0.17441141E-08   0.14880995E+02
  -0.53563848E+01   0.95000000E+01
   0.11208879E+02  -0.52478085E+01  -0.17441141E-08   0.14966593E+02
  -0.53552132E+01   0.95000000E+01
   0.11356157E+02  -0.52489300E+01  -0.17441141E-08   0.15052191E+02
  -0.53540411E+01   0.95000000E+01
   0.11650715E+02  -0.52511730E+01  -0.17441141E-08   0.15223386E+02
  -0.53516974E+01   0.94999990E+01
   0.11945271E+02  -0.52534161E+01  -0.17441141E-08   0.15394581E+02
  -0.53493538E+01   0.95000000E+01
   0.12534386E+02  -0.52579021E+01  -0.17441141E-08   0.15736972E+02
  -0.53446665E+01   0.95000000E+01
   0.13123500E+02  -0.52623878E+01  -0.17441141E-08   0.16079363E+02
  -0.53399792E+01   0.95000000E+01
   0.14307688E+02  -0.52694979E+01  -0.17441141E-08   0.16756002E+02
  -0.53324609E+01   0.95000000E+01
   0.15491876E+02  -0.52766080E+01  -0.17441141E-08   0.17432642E+02
  -0.53249426E+01   0.94999990E+01
   0.17867304E+02  -0.52891216E+01  -0.17441141E-08   0.18775522E+02
  -0.53116040E+01   0.95000000E+01
   0.19033653E+02  -0.52945609E+01  -0.17441141E-08   0.19487762E+02
  -0.53058023E+01   0.95000000E+01
   0.19616827E+02  -0.52972803E+01  -0.17441141E-08   0.19843882E+02
  -0.53029013E+01   0.95000000E+01
   0.19908413E+02  -0.52986403E+01  -0.17441141E-08   0.20021942E+02
  -0.53014507E+01   0.95000000E+01
   0.20054207E+02  -0.52993202E+01  -0.17441141E-08   0.20110971E+02
  -0.53007255E+01   0.95000000E+01
   0.20200001E+02  -0.53000002E+01  -0.17441141E-08   0.20200001E+02
  -0.53000002E+01   0.95000000E+01
   0.00000000E+00   0.00000000E+00  -0.17441141E-08   0.00000000E+00
   0.00000000E+00   0.95000000E+01
   0.11189526E+00   0.41034515E-03  -0.17441141E-08   0.15345000E+00
  -0.44328082E-03   0.95000000E+01
   0.22379053E+00   0.82069030E-03  -0.17441141E-08   0.30689999E+00
  -0.88656164E-03   0.95000000E+01
   0.44758105E+00   0.16413806E-02  -0.17441141E-08   0.61379999E+00
  -0.17731233E-02   0.95000000E+01
   0.89516211E+00   0.32827612E-02  -0.17441141E-08   0.12276000E+01
  -0.35462466E-02   0.95000000E+01
   0.17903242E+01   0.65655224E-02  -0.17441141E-08   0.24552000E+01
  -0.70924931E-02   0.95000000E+01
   0.35758500E+01   0.13223486E-01  -0.17441141E-08   0.49194212E+01
  -0.14288256E-01   0.95000000E+01
   0.53604698E+01   0.19472448E-01  -0.17441141E-08   0.73846879E+01
  -0.21075362E-01   0.94999990E+01
   0.71426916E+01   0.24871355E-01  -0.17441141E-08   0.98530712E+01
  -0.27014244E-01   0.95000000E+01
   0.80311699E+01   0.26680123E-01  -0.17441141E-08   0.11090758E+02
  -0.29095180E-01   0.95000000E+01
   0.89196472E+01   0.28488889E-01  -0.17441141E-08   0.12328445E+02
  -0.31176114E-01   0.95000000E+01
   0.93611116E+01   0.28454598E-01  -0.17441141E-08   0.12950968E+02
  -0.31280201E-01   0.95000000E+01
   0.98025761E+01   0.28420307E-01  -0.17441141E-08   0.13573489E+02
  -0.31384286E-01   0.94999990E+01
   0.10023308E+02   0.28403161E-01  -0.17441141E-08   0.13884750E+02
  -0.31436332E-01   0.95000000E+01
   0.10244040E+02   0.28386015E-01  -0.17441141E-08   0.14196011E+02
  -0.31488374E-01   0.95000000E+01
   0.10354406E+02   0.28377444E-01  -0.17441141E-08   0.14351641E+02
  -0.31514395E-01   0.95000000E+01
   0.10464773E+02   0.28368872E-01  -0.17441141E-08   0.14507272E+02
  -0.31540416E-01   0.95000000E+01
   0.10519957E+02   0.28364586E-01  -0.17441141E-08   0.14585087E+02
  -0.31553425E-01   0.94999990E+01
   0.10575139E+02   0.28360300E-01  -0.17441141E-08   0.14662903E+02
  -0.31566441E-01   0.95000000E+01
   0.10630322E+02   0.28356012E-01  -0.17441141E-08   0.14740718E+02
  -0.31579450E-01   0.95000000E+01
   0.10685505E+02   0.28351726E-01  -0.17441141E-08   0.14818533E+02
  -0.31592462E-01   0.95000000E+01
   0.10760410E+02   0.28240554E-01  -0.17441141E-08   0.14859686E+02
  -0.31455163E-01   0.95000000E+01
   0.10835316E+02   0.28129380E-01  -0.17441141E-08   0.14900839E+02
  -0.31317864E-01   0.95000000E+01
   0.10910221E+02   0.28018208E-01  -0.17441141E-08   0.14941992E+02
  -0.31180564E-01   0.95000000E+01
   0.10985126E+02   0.27907036E-01  -0.17441141E-08   0.14983145E+02
  -0.31043265E-01   0.95000000E+01
   0.11134937E+02   0.27684692E-01  -0.17441141E-08   0.15065451E+02
  -0.30768666E-01   0.95000000E+01
   0.11284747E+02   0.27462348E-01  -0.17441141E-08   0.15147756E+02
  -0.30494068E-01   0.95000000E+01
   0.11584368E+02   0.27017660E-01  -0.17441141E-08   0.15312366E+02
  -0.29944871E-01   0.95000000E+01
   0.11883989E+02   0.26572973E-01  -0.17441141E-08   0.15476978E+02
  -0.29395675E-01   0.95000000E+01
   0.12483232E+02   0.25683595E-01  -0.17441141E-08   0.15806201E+02
  -0.28297283E-01   0.95000000E+01
   0.13082475E+02   0.24794217E-01  -0.17441141E-08   0.16135424E+02
  -0.27198885E-01   0.94999990E+01
   0.14274986E+02   0.21154679E-01  -0.17441141E-08   0.16802038E+02
  -0.23146899E-01   0.95000000E+01
   0.15467498E+02   0.17515140E-01  -0.17441141E-08   0.17468653E+02
  -0.19094910E-01   0.95000000E+01
   0.17845438E+02   0.85302023E-02  -0.17441141E-08   0.18812351E+02
  -0.92937015E-02   0.94999990E+01
   0.19022720E+02   0.42651012E-02  -0.17441141E-08   0.19506176E+02
  -0.46468507E-02   0.95000000E+01
   0.19611361E+02   0.21325506E-02  -0.17441141E-08   0.19853088E+02
  -0.23234254E-02   0.95000000E+01
   0.19905682E+02   0.10662753E-02  -0.17441141E-08   0.20026545E+02
  -0.11617127E-02   0.95000000E+01
   0.20052841E+02   0.53313765E-03  -0.17441141E-08   0.20113274E+02
  -0.58085634E-03   0.95000000E+01
   0.20200001E+02   0.00000000E+00  -0.17441141E-08   0.20200001E+02
   0.00000000E+00   0.95000000E+01
/
ZCORN
  -0.17441141E-08  -0.17441141E-08  -0.17441141E-08  -0.17441141E-08
  -0.17441141E-08  -0.17441141E-08  -0.17441141E-08  -0.17441141E-08
  -0.17441141E-08  -0.17441141E-08  -0.17441141E-08  -0.17441141E-08
  -0.17441141E-08  -0.17441141E-08  -0.17441141E-08  -0.17441141E-08
  -0.17441141E-08  -0.17441141E-08  -0.17441141E-08  -0.17441141E-08
  -0.17441141E-08  -0.17441141E-08  -0.17441141E-08  -0.17441141E-08
  -0.17441141E-08  -0.17441141E-08  -0.17441141E-08  -0.17441141E-08
  -0.17441141E-08  -0.17441141E-08  -0.17441141E-08  -0.17441141E-08
  -0.17441141E-08  -0.17441141E-08  -0.17441141E-08  -0.17441141E-08
  -0.17441141E-08  -0.17441141E-08  -0.17441141E-08  -0.17441141E-08
  -0.17441141E-08  -0.17441141E-08  -0.17441141E-08  -0.17441141E-08
  -0.17441141E-08  -0.17441141E-08  -0.17441141E-08  -0.17441141E-08
  -0.17441141E-08  -0.17441141E-08  -0.17441141E-08  -0.17441141E-08
  -0.17441141E-08  -0.17441141E-08  -0.17441141E-08  -0.17441141E-08
  -0.17441141E-08  -0.17441141E-08  -0.17441141E-08  -0.17441141E-08
  -0.17441141E-08  -0.17441141E-08  -0.17441141E-08  -0.17441141E-08
  -0.17441141E-08  -0.17441141E-08  -0.17441141E-08  -0.17441141E-08
  -0.17441141E-08  -0.17441141E-08  -0.17441141E-08  -0.17441141E-08
  -0.17441141E-08  -0.17441141E-08  -0.17441141E-08  -0.17441141E-08
  -0.17441141E-08  -0.17441141E-08  -0.17441141E-08  -0.17441141E-08
  -0.17441141E-08  -0.17441141E-08  -0.17441141E-08  -0.17441141E-08
  -0.17441141E-08  -0.17441141E-08  -0.17441141E-08  -0.17441141E-08
  -0.17441141E-08  -0.17441141E-08  -0.17441141E-08  -0.17441141E-08
  -0.17441141E-08  -0.17441141E-08  -0.17441141E-08  -0.17441141E-08
  -0.17441141E-08  -0.17441141E-08  -0.17441141E-08  -0.17441141E-08
  -0.17441141E-08  -0.17441141E-08  -0.17441141E-08  -0.17441141E-08
  -0.17441141E-08  -0.17441141E-08  -0.17441141E-08  -0.17441141E-08
  -0.17441141E-08  -0.17441141E-08  -0.17441141E-08  -0.17441141E-08
  -0.17441141E-08  -0.17441141E-08  -0.17441141E-08  -0.17441141E-08
  -0.17441141E-08  -0.17441141E-08  -0.17441141E-08  -0.17441141E-08
  -0.17441141E-08  -0.17441141E-08  -0.17441141E-08  -0.17441141E-08
  -0.17441141E-08  -0.17441141E-08  -0.17441141E-08  -0.17441141E-08
  -0.17441141E-08  -0.17441141E-08  -0.17441141E-08  -0.17441141E-08
  -0.17441141E-08  -0.17441141E-08  -0.17441141E-08  -0.17441141E-08
  -0.17441141E-08  -0.17441141E-08  -0.17441141E-08  -0.17441141E-08
  -0.17441141E-08  -0.17441141E-08  -0.17441141E-08  -0.17441141E-08
  -0.17441141E-08  -0.17441141E-08  -0.17441141E-08  -0.17441141E-08
  -0.17441141E-08  -0.17441141E-08  -0.17441141E-08  -0.17441141E-08
   0.59375006E+00   0.59375006E+00   0.59375006E+00   0.59375006E+00
   0.59375006E+00   0.59375006E+00   0.59375006E+00   0.59375006E+00
   0.59375006E+00   0.59375006E+00   0.59375006E+00   0.59375006E+00
   0.59375006E+00   0.59375006E+00   0.59375006E+00   0.59374994E+00
   0.59374994E+00   0.59375006E+00   0.59375006E+00   0.59374994E+00
   0.59374994E+00   0.59375012E+00   0.59375012E+00   0.59375006E+00
   0.59375006E+00   0.59375000E+00   0.59375000E+00   0.59374994E+00
   0.59374994E+00   0.59374994E+00   0.59374994E+00   0.59374994E+00
   0.59374994E+00   0.59374994E+00   0.59374994E+00   0.59374988E+00
   0.59374988E+00   0.59374994E+00   0.59374994E+00   0.59375024E+00
   0.59375024E+00   0.59374994E+00   0.59374994E+00   0.59375000E+00
   0.59375000E+00   0.59375006E+00   0.59375006E+00   0.59375006E+00
   0.59375006E+00   0.59375024E+00   0.59375024E+00   0.59374994E+00
   0.59374994E+00   0.59375018E+00   0.59375018E+00   0.59375006E+00
   0.59375006E+00   0.59375012E+00   0.59375012E+00   0.59374994E+00
   0.59374994E+00   0.59375012E+00   0.59375012E+00   0.59375000E+00
   0.59375000E+00   0.59375012E+00   0.59375012E+00   0.59375012E+00
   0.59375012E+00   0.59375012E+00   0.59375012E+00   0.59375012E+00
   0.59375012E+00   0.59375012E+00   0.59375012E+00   0.59375006E+00
   0.59375006E+00   0.59375006E+00   0.59375006E+00   0.59375006E+00
   0.59375006E+00   0.59375006E+00   0.59375006E+00   0.59375006E+00
   0.59375006E+00   0.59375006E+00   0.59375006E+00   0.59375006E+00
   0.59375006E+00   0.59375000E+00   0.59375000E+00   0.59375006E+00
   0.59375006E+00   0.59375000E+00   0.59375000E+00   0.59375006E+00
   0.59375006E+00   0.59375012E+00   0.59375012E+00   0.59375018E+00
   0.59375018E+00   0.59375024E+00   0.59375024E+00   0.59374994E+00
   0.59374994E+00   0.59375012E+00   0.59375012E+00   0.59375000E+00
   0.59375000E+00   0.59374988E+00   0.59374988E+00   0.59375012E+00
   0.59375012E+00   0.59375006E+00   0.59375006E+00   0.59375000E+00
   0.59375000E+00   0.59375000E+00   0.59375000E+00   0.59375000E+00
   0.59375000E+00   0.59375000E+00   0.59375000E+00   0.59375000E+00
   0.59375000E+00   0.59375000E+00   0.59375000E+00   0.59375000E+00
   0.59375000E+00   0.59375000E+00   0.59375000E+00   0.59375000E+00
   0.59375000E+00   0.59375000E+00   0.59375000E+00   0.59375000E+00
   0.59375000E+00   0.59375006E+00   0.59375006E+00   0.59375012E+00
   0.59375012E+00   0.59375006E+00   0.59375006E+00   0.59375006E+00
   0.59375006E+00   0.59375006E+00   0.59375006E+00   0.59375006E+00
   0.59375006E+00   0.59375006E+00   0.59375006E+00   0.59375006E+00
   0.59375006E+00   0.59375006E+00   0.59375006E+00   0.59375006E+00
   0.59375006E+00   0.59375006E+00   0.59375006E+00   0.59375006E+00
   0.59375006E+00   0.59375006E+00   0.59375006E+00   0.59375006E+00
   0.59375006E+00   0.59375006E+00   0.59375006E+00   0.59374994E+00
   0.59374994E+00   0.59375006E+00   0.59375006E+00   0.59374994E+00
   0.59374994E+00   0.59375012E+00   0.59375012E+00   0.59375006E+00
   0.59375006E+00   0.59375000E+00   0.59375000E+00   0.59374994E+00
   0.59374994E+00   0.59374994E+00   0.59374994E+00   0.59374994E+00
   0.59374994E+00   0.59374994E+00   0.59374994E+00   0.59374988E+00
   0.59374988E+00   0.59374994E+00   0.59374994E+00   0.59375024E+00
   0.59375024E+00   0.59374994E+00   0.59374994E+00   0.59375000E+00
   0.59375000E+00   0.59375006E+00   0.59375006E+00   0.59375006E+00
   0.59375006E+00   0.59375024E+00   0.59375024E+00   0.59374994E+00
   0.59374994E+00   0.59375018E+00   0.59375018E+00   0.59375006E+00
   0.59375006E+00   0.59375012E+00   0.59375012E+00   0.59374994E+00
   0.59374994E+00   0.59375012E+00   0.59375012E+00   0.59375000E+00
   0.59375000E+00   0.59375012E+00   0.59375012E+00   0.59375012E+00
   0.59375012E+00   0.59375012E+00   0.59375012E+00   0.59375012E+00
   0.59375012E+00   0.59375012E+00   0.59375012E+00   0.59375006E+00
   0.59375006E+00   0.59375006E+00   0.59375006E+00   0.59375006E+00
   0.59375006E+00   0.59375006E+00   0.59375006E+00   0.59375006E+00
   0.59375006E+00   0.59375006E+00   0.59375006E+00   0.59375006E+00
   0.59375006E+00   0.59375000E+00   0.59375000E+00   0.59375006E+00
   0.59375006E+00   0.59375000E+00   0.59375000E+00   0.59375006E+00
   0.59375006E+00   0.59375012E+00   0.59375012E+00   0.59375018E+00
   0.59375018E+00   0.59375024E+00   0.59375024E+00   0.59374994E+00
   0.59374994E+00   0.59375012E+00   0.59375012E+00   0.59375000E+00
   0.59375000E+00   0.59374988E+00   0.59374988E+00   0.59375012E+00
   0.59375012E+00   0.59375006E+00   0.59375006E+00   0.59375000E+00
   0.59375000E+00   0.59375000E+00   0.59375000E+00   0.59375000E+00
   0.59375000E+00   0.59375000E+00   0.59375000E+00   0.59375000E+00
   0.59375000E+00   0.59375000E+00   0.59375000E+00   0.59375000E+00
   0.59375000E+00   0.59375000E+00   0.59375000E+00   0.59375000E+00
   0.59375000E+00   0.59375000E+00   0.59375000E+00   0.59375000E+00
   0.59375000E+00   0.59375006E+00   0.59375006E+00   0.59375012E+00
   0.59375012E+00   0.59375006E+00   0.59375006E+00   0.59375006E+00
   0.59375006E+00   0.59375006E+00   0.59375006E+00   0.59375006E+00
   0.59375006E+00   0.59375006E+00   0.59375006E+00   0.59375006E+00
   0.11875000E+01   0.11875000E+01   0.11875000E+01   0.11875000E+01
   0.11875000E+01   0.11875000E+01   0.11875000E+01   0.11875000E+01
   0.11875000E+01   0.11875000E+01   0.11875000E+01   0.11875000E+01
   0.11875000E+01   0.11875000E+01   0.11875000E+01   0.11875000E+01
   0.11875000E+01   0.11875000E+01   0.11875000E+01   0.11875001E+01
   0.11875001E+01   0.11874999E+01   0.11874999E+01   0.11875000E+01
   0.11875000E+01   0.11874999E+01   0.11874999E+01   0.11874998E+01
   0.11874998E+01   0.11875001E+01   0.11875001E+01   0.11875001E+01
   0.11875001E+01   0.11875001E+01   0.11875001E+01   0.11875000E+01
   0.11875000E+01   0.11875001E+01   0.11875001E+01   0.11875000E+01
   0.11875000E+01   0.11874998E+01   0.11874998E+01   0.11874999E+01
   0.11874999E+01   0.11875000E+01   0.11875000E+01   0.11875000E+01
   0.11875000E+01   0.11875000E+01   0.11875000E+01   0.11874998E+01
   0.11874998E+01   0.11874999E+01   0.11874999E+01   0.11875000E+01
   0.11875000E+01   0.11874999E+01   0.11874999E+01   0.11875000E+01
   0.11875000E+01   0.11875001E+01   0.11875001E+01   0.11874999E+01
   0.11874999E+01   0.11875000E+01   0.11875000E+01   0.11875000E+01
   0.11875000E+01   0.11875000E+01   0.11875000E+01   0.11875000E+01
   0.11875000E+01   0.11875000E+01   0.11875000E+01   0.11875000E+01
   0.11875000E+01   0.11875000E+01   0.11875000E+01   0.11875000E+01
   0.11875000E+01   0.11875000E+01   0.11875000E+01   0.11875000E+01
   0.11875000E+01   0.11875000E+01   0.11875000E+01   0.11875000E+01
   0.11875000E+01   0.11875000E+01   0.11875000E+01   0.11875001E+01
   0.11875001E+01   0.11874999E+01   0.11874999E+01   0.11875000E+01
   0.11875000E+01   0.11875001E+01   0.11875001E+01   0.11874999E+01
   0.11874999E+01   0.11875000E+01   0.11875000E+01   0.11875001E+01
   0.11875001E+01   0.11875001E+01   0.11875001E+01   0.11874999E+01
   0.11874999E+01   0.11875000E+01   0.11875000E+01   0.11874999E+01
   0.11874999E+01   0.11875000E+01   0.11875000E+01   0.11874999E+01
   0.11874999E+01   0.11874999E+01   0.11874999E+01   0.11874999E+01
   0.11874999E+01   0.11874999E+01   0.11874999E+01   0.11874999E+01
   0.11874999E+01   0.11874999E+01   0.11874999E+01   0.11874999E+01
   0.11874999E+01   0.11874999E+01   0.11874999E+01   0.11874999E+01
   0.11874999E+01   0.11874999E+01   0.11874999E+01   0.11874999E+01
   0.11874999E+01   0.11875000E+01   0.11875000E+01   0.11874999E+01
   0.11874999E+01   0.11875000E+01   0.11875000E+01   0.11875000E+01
   0.11875000E+01   0.11875000E+01   0.11875000E+01   0.11875000E+01
   0.11875000E+01   0.11875000E+01   0.11875000E+01   0.11875000E+01
   0.11875000E+01   0.11875000E+01   0.11875000E+01   0.11875000E+01
   0.11875000E+01   0.11875000E+01   0.11875000E+01   0.11875000E+01
   0.11875000E+01   0.11875000E+01   0.11875000E+01   0.11875000E+01
   0.11875000E+01   0.11875000E+01   0.11875000E+01   0.11875000E+01
   0.11875000E+01   0.11875000E+01   0.11875000E+01   0.11875001E+01
   0.11875001E+01   0.11874999E+01   0.11874999E+01   0.11875000E+01
   0.11875000E+01   0.11874999E+01   0.11874999E+01   0.11874998E+01
   0.11874998E+01   0.11875001E+01   0.11875001E+01   0.11875001E+01
   0.11875001E+01   0.11875001E+01   0.11875001E+01   0.11875000E+01
   0.11875000E+01   0.11875001E+01   0.11875001E+01   0.11875000E+01
   0.11875000E+01   0.11874998E+01   0.11874998E+01   0.11874999E+01
   0.11874999E+01   0.11875000E+01   0.11875000E+01   0.11875000E+01
   0.11875000E+01   0.11875000E+01   0.11875000E+01   0.11874998E+01
   0.11874998E+01   0.11874999E+01   0.11874999E+01   0.11875000E+01
   0.11875000E+01   0.11874999E+01   0.11874999E+01   0.11875000E+01
   0.11875000E+01   0.11875001E+01   0.11875001E+01   0.11874999E+01
   0.11874999E+01   0.11875000E+01   0.11875000E+01   0.11875000E+01
   0.11875000E+01   0.11875000E+01   0.11875000E+01   0.11875000E+01
   0.11875000E+01   0.11875000E+01   0.11875000E+01   0.11875000E+01
   0.11875000E+01   0.11875000E+01   0.11875000E+01   0.11875000E+01
   0.11875000E+01   0.11875000E+01   0.11875000E+01   0.11875000E+01
   0.11875000E+01   0.11875000E+01   0.11875000E+01   0.11875000E+01
   0.11875000E+01   0.11875000E+01   0.11875000E+01   0.11875001E+01
   0.11875001E+01   0.11874999E+01   0.11874999E+01   0.11875000E+01
   0.11875000E+01   0.11875001E+01   0.11875001E+01   0.11874999E+01
   0.11874999E+01   0.11875000E+01   0.11875000E+01   0.11875001E+01
   0.11875001E+01   0.11875001E+01   0.11875001E+01   0.11874999E+01
   0.11874999E+01   0.11875000E+01   0.11875000E+01   0.11874999E+01
   0.11874999E+01   0.11875000E+01   0.11875000E+01   0.11874999E+01
   0.11874999E+01   0.11874999E+01   0.11874999E+01   0.11874999E+01
   0.11874999E+01   0.11874999E+01   0.11874999E+01   0.11874999E+01
   0.11874999E+01   0.11874999E+01   0.11874999E+01   0.11874999E+01
   0.11874999E+01   0.11874999E+01   0.11874999E+01   0.11874999E+01
   0.11874999E+01   0.11874999E+01   0.11874999E+01   0.11874999E+01
   0.11874999E+01   0.11875000E+01   0.11875000E+01   0.11874999E+01
   0.11874999E+01   0.11875000E+01   0.11875000E+01   0.11875000E+01
   0.11875000E+01   0.11875000E+01   0.11875000E+01   0.11875000E+01
   0.11875000E+01   0.11875000E+01   0.11875000E+01   0.11875000E+01
   0.17812500E+01   0.17812500E+01   0.17812500E+01   0.17812500E+01
   0.17812500E+01   0.17812500E+01   0.17812500E+01   0.17812500E+01
   0.17812500E+01   0.17812500E+01   0.17812500E+01   0.17812500E+01
   0.17812500E+01   0.17812500E+01   0.17812500E+01   0.17812498E+01
   0.17812498E+01   0.17812500E+01   0.17812500E+01   0.17812500E+01
   0.17812500E+01   0.17812500E+01   0.17812500E+01   0.17812500E+01
   0.17812500E+01   0.17812498E+01   0.17812498E+01   0.17812500E+01
   0.17812500E+01   0.17812500E+01   0.17812500E+01   0.17812500E+01
   0.17812500E+01   0.17812500E+01   0.17812500E+01   0.17812498E+01
   0.17812498E+01   0.17812500E+01   0.17812500E+01   0.17812499E+01
   0.17812499E+01   0.17812500E+01   0.17812500E+01   0.17812499E+01
   0.17812499E+01   0.17812500E+01   0.17812500E+01   0.17812501E+01
   0.17812501E+01   0.17812501E+01   0.17812501E+01   0.17812500E+01
   0.17812500E+01   0.17812500E+01   0.17812500E+01   0.17812501E+01
   0.17812501E+01   0.17812500E+01   0.17812500E+01   0.17812499E+01
   0.17812499E+01   0.17812500E+01   0.17812500E+01   0.17812498E+01
   0.17812498E+01   0.17812500E+01   0.17812500E+01   0.17812500E+01
   0.17812500E+01   0.17812500E+01   0.17812500E+01   0.17812500E+01
   0.17812500E+01   0.17812500E+01   0.17812500E+01   0.17812500E+01
   0.17812500E+01   0.17812500E+01   0.17812500E+01   0.17812500E+01
   0.17812500E+01   0.17812500E+01   0.17812500E+01   0.17812500E+01
   0.17812500E+01   0.17812500E+01   0.17812500E+01   0.17812500E+01
   0.17812500E+01   0.17812500E+01   0.17812500E+01   0.17812501E+01
   0.17812501E+01   0.17812501E+01   0.17812501E+01   0.17812500E+01
   0.17812500E+01   0.17812499E+01   0.17812499E+01   0.17812500E+01
   0.17812500E+01   0.17812499E+01   0.17812499E+01   0.17812500E+01
   0.17812500E+01   0.17812500E+01   0.17812500E+01   0.17812501E+01
   0.17812501E+01   0.17812498E+01   0.17812498E+01   0.17812500E+01
   0.17812500E+01   0.17812501E+01   0.17812501E+01   0.17812500E+01
   0.17812500E+01   0.17812499E+01   0.17812499E+01   0.17812499E+01
   0.17812499E+01   0.17812499E+01   0.17812499E+01   0.17812499E+01
   0.17812499E+01   0.17812499E+01   0.17812499E+01   0.17812499E+01
   0.17812499E+01   0.17812499E+01   0.17812499E+01   0.17812499E+01
   0.17812499E+01   0.17812499E+01   0.17812499E+01   0.17812498E+01
   0.17812498E+01   0.17812501E+01   0.17812501E+01   0.17812500E+01
   0.17812500E+01   0.17812498E+01   0.17812498E+01   0.17812499E+01
   0.17812499E+01   0.17812500E+01   0.17812500E+01   0.17812500E+01
   0.17812500E+01   0.17812500E+01   0.17812500E+01   0.17812500E+01
   0.17812500E+01   0.17812500E+01   0.17812500E+01   0.17812500E+01
   0.17812500E+01   0.17812500E+01   0.17812500E+01   0.17812500E+01
   0.17812500E+01   0.17812500E+01   0.17812500E+01   0.17812500E+01
   0.17812500E+01   0.17812500E+01   0.17812500E+01   0.17812498E+01
   0.17812498E+01   0.17812500E+01   0.17812500E+01   0.17812500E+01
   0.17812500E+01   0.17812500E+01   0.17812500E+01   0.17812500E+01
   0.17812500E+01   0.17812498E+01   0.17812498E+01   0.17812500E+01
   0.17812500E+01   0.17812500E+01   0.17812500E+01   0.17812500E+01
   0.17812500E+01   0.17812500E+01   0.17812500E+01   0.17812498E+01
   0.17812498E+01   0.17812500E+01   0.17812500E+01   0.17812499E+01
   0.17812499E+01   0.17812500E+01   0.17812500E+01   0.17812499E+01
   0.17812499E+01   0.17812500E+01   0.17812500E+01   0.17812501E+01
   0.17812501E+01   0.17812501E+01   0.17812501E+01   0.17812500E+01
   0.17812500E+01   0.17812500E+01   0.17812500E+01   0.17812501E+01
   0.17812501E+01   0.17812500E+01   0.17812500E+01   0.17812499E+01
   0.17812499E+01   0.17812500E+01   0.17812500E+01   0.17812498E+01
   0.17812498E+01   0.17812500E+01   0.17812500E+01   0.17812500E+01
   0.17812500E+01   0.17812500E+01   0.17812500E+01   0.17812500E+01
   0.17812500E+01   0.17812500E+01   0.17812500E+01   0.17812500E+01
   0.17812500E+01   0.17812500E+01   0.17812500E+01   0.17812500E+01
   0.17812500E+01   0.17812500E+01   0.17812500E+01   0.17812500E+01
   0.17812500E+01   0.17812500E+01   0.17812500E+01   0.17812500E+01
   0.17812500E+01   0.17812500E+01   0.17812500E+01   0.17812501E+01
   0.17812501E+01   0.17812501E+01   0.17812501E+01   0.17812500E+01
   0.17812500E+01   0.17812499E+01   0.17812499E+01   0.17812500E+01
   0.17812500E+01   0.17812499E+01   0.17812499E+01   0.17812500E+01
   0.17812500E+01   0.17812500E+01   0.17812500E+01   0.17812501E+01
   0.17812501E+01   0.17812498E+01   0.17812498E+01   0.17812500E+01
   0.17812500E+01   0.17812501E+01   0.17812501E+01   0.17812500E+01
   0.17812500E+01   0.17812499E+01   0.17812499E+01   0.17812499E+01
   0.17812499E+01   0.17812499E+01   0.17812499E+01   0.17812499E+01
   0.17812499E+01   0.17812499E+01   0.17812499E+01   0.17812499E+01
   0.17812499E+01   0.17812499E+01   0.17812499E+01   0.17812499E+01
   0.17812499E+01   0.17812499E+01   0.17812499E+01   0.17812498E+01
   0.17812498E+01   0.17812501E+01   0.17812501E+01   0.17812500E+01
   0.17812500E+01   0.17812498E+01   0.17812498E+01   0.17812499E+01
   0.17812499E+01   0.17812500E+01   0.17812500E+01   0.17812500E+01
   0.17812500E+01   0.17812500E+01   0.17812500E+01   0.17812500E+01
   0.23750000E+01   0.23750000E+01   0.23750000E+01   0.23750000E+01
   0.23750000E+01   0.23750000E+01   0.23750000E+01   0.23750000E+01
   0.23750000E+01   0.23750000E+01   0.23750000E+01   0.23750000E+01
   0.23750000E+01   0.23750000E+01   0.23750000E+01   0.23750000E+01
   0.23750000E+01   0.23750000E+01   0.23750000E+01   0.23750002E+01
   0.23750002E+01   0.23750000E+01   0.23750000E+01   0.23750000E+01
   0.23750000E+01   0.23750000E+01   0.23750000E+01   0.23750000E+01
   0.23750000E+01   0.23749998E+01   0.23749998E+01   0.23750002E+01
   0.23750002E+01   0.23750002E+01   0.23750002E+01   0.23750000E+01
   0.23750000E+01   0.23750002E+01   0.23750002E+01   0.23750000E+01
   0.23750000E+01   0.23750000E+01   0.23750000E+01   0.23749998E+01
   0.23749998E+01   0.23750000E+01   0.23750000E+01   0.23750000E+01
   0.23750000E+01   0.23750000E+01   0.23750000E+01   0.23750000E+01
   0.23750000E+01   0.23749998E+01   0.23749998E+01   0.23750000E+01
   0.23750000E+01   0.23750000E+01   0.23750000E+01   0.23750000E+01
   0.23750000E+01   0.23750000E+01   0.23750000E+01   0.23749998E+01
   0.23749998E+01   0.23750000E+01   0.23750000E+01   0.23750000E+01
   0.23750000E+01   0.23750000E+01   0.23750000E+01   0.23750000E+01
   0.23750000E+01   0.23750000E+01   0.23750000E+01   0.23750000E+01
   0.23750000E+01   0.23750000E+01   0.23750000E+01   0.23750000E+01
   0.23750000E+01   0.23750000E+01   0.23750000E+01   0.23750000E+01
   0.23750000E+01   0.23750000E+01   0.23750000E+01   0.23750000E+01
   0.23750000E+01   0.23749998E+01   0.23749998E+01   0.23750002E+01
   0.23750002E+01   0.23750002E+01   0.23750002E+01   0.23750000E+01
   0.23750000E+01   0.23750000E+01   0.23750000E+01   0.23749998E+01
   0.23749998E+01   0.23750000E+01   0.23750000E+01   0.23750000E+01
   0.23750000E+01   0.23750000E+01   0.23750000E+01   0.23750000E+01
   0.23750000E+01   0.23750000E+01   0.23750000E+01   0.23750000E+01
   0.23750000E+01   0.23750000E+01   0.23750000E+01   0.23749998E+01
   0.23749998E+01   0.23749998E+01   0.23749998E+01   0.23749998E+01
   0.23749998E+01   0.23749998E+01   0.23749998E+01   0.23749998E+01
   0.23749998E+01   0.23749998E+01   0.23749998E+01   0.23750002E+01
   0.23750002E+01   0.23749998E+01   0.23749998E+01   0.23749998E+01
   0.23749998E+01   0.23749998E+01   0.23749998E+01   0.23749998E+01
   0.23749998E+01   0.23750000E+01   0.23750000E+01   0.23750000E+01
   0.23750000E+01   0.23749998E+01   0.23749998E+01   0.23750000E+01
   0.23750000E+01   0.23750000E+01   0.23750000E+01   0.23750000E+01
   0.23750000E+01   0.23750000E+01   0.23750000E+01   0.23750000E+01
   0.23750000E+01   0.23750000E+01   0.23750000E+01   0.23750000E+01
   0.23750000E+01   0.23750000E+01   0.23750000E+01   0.23750000E+01