TITLE="1D fracture traces in 3D domain" 
VARIABLES="X" "Y" "Z"     
ZONE N=10, E=7, F=FEPOINT, ET=TRIANGLE
 0.00000   0.00000   0.00000
52.00000   0.00000   0.00000
52.00000   0.00000  32.00000
 0.00000   0.00000  32.00000
11.00000   0.00000  21.00000
21.00000   0.00000   6.00000
21.00000   0.00000  26.00000
31.00000   0.00000   6.00000
31.00000   0.00000  26.00000
41.00000   0.00000  11.00000
1 2 2
2 3 3
3 4 4
4 1 1
5 6 6
7 8 8
9 10 10
