SPECGRID
  26  45  7   1  F  /

COORD
   456719.738   5935677.371    1734.553    456719.738   5935677.371    1771.988
   457053.317   5935869.963    1735.117    457053.317   5935869.963    1772.622
   457386.896   5936062.555    1740.327    457386.896   5936062.555    1777.913
   457720.475   5936255.147    1744.384    457720.475   5936255.147    1782.057
   457969.890   5936399.147    1739.891    457969.891   5936399.147    1777.630
   458219.305   5936543.146    1733.753    458219.305   5936543.146    1771.558
   458400.989   5936648.042    1734.359    458402.450   5936648.885    1772.218
   458582.672   5936752.937    1735.877    458585.594   5936754.624    1773.809
   458764.355   5936857.831    1736.322    458768.738   5936860.362    1774.214
   458946.038   5936962.726    1737.622    458951.883   5936966.101    1775.716
   459127.721   5937067.621    1741.724    459135.027   5937071.839    1780.253
   459309.405   5937172.516    1749.917    459318.171   5937177.577    1789.387
   459491.088   5937277.411    1759.158    459501.316   5937283.316    1796.736
   459672.771   5937382.306    1759.648    459684.460   5937389.054    1797.937
   459854.454   5937487.201    1759.014    459867.604   5937494.793    1797.217
   460036.137   5937592.095    1759.693    460050.749   5937600.531    1797.816
   460217.821   5937696.990    1759.283    460233.893   5937706.270    1797.602
   460399.503   5937801.885    1757.192    460417.037   5937812.008    1796.000
   460581.187   5937906.780    1771.938    460600.182   5937917.747    1810.414
   460762.869   5938011.674    1791.539    460864.274   5938070.221    1976.924
   461030.951   5938166.451    1842.212    461030.951   5938166.451    1842.212
   461197.989   5938262.891    1968.895    461207.823   5938268.568    1999.447
   461370.125   5938362.274    1920.518    461379.597   5938367.742    1958.405
   461542.261   5938461.657    1917.018    461551.371   5938466.916    1956.050
   461714.398   5938561.040    1912.952    461723.145   5938566.090    1951.639
   461886.534   5938660.422    1914.994    461894.919   5938665.264    1954.301
   462058.671   5938759.806    1920.723    462066.692   5938764.437    1960.148
   456913.707   5935341.409    1731.402    456913.707   5935341.409    1768.753
   457246.836   5935533.694    1732.193    457247.806   5935534.367    1769.581
   457579.863   5935725.957    1735.911    457581.968   5935727.302    1773.400
   457912.675   5935918.127    1736.216    457916.212   5935920.242    1773.801
   458161.420   5936061.796    1740.306    458166.407   5936064.643    1777.971
   458409.839   5936205.281    1743.822    458416.708   5936209.086    1781.536
   458589.980   5936309.315    1743.642    458598.888   5936314.168    1781.195
   458769.386   5936412.934    1739.087    458780.539   5936418.973    1776.483
   458949.026   5936516.649    1734.090    458962.550   5936523.979    1771.651
   459130.768   5936621.507    1733.173    459146.596   5936630.037    1770.942
   459315.970   5936728.285    1741.046    459333.283   5936737.196    1777.891
   459488.463   5936828.338    1732.264    459507.048   5936836.822    1769.852
   459663.292   5936929.731    1728.184    459682.507   5936937.543    1765.714
   459842.368   5937032.780    1736.782    459861.936   5937040.204    1774.201
   460021.503   5937135.629    1744.013    460041.396   5937143.207    1782.063
   460199.287   5937237.656    1747.034    460219.611   5937246.084    1785.886
   460377.707   5937339.448    1753.932    460398.057   5937349.241    1793.072
   460555.582   5937439.956    1759.721    460575.934   5937451.738    1798.435
   460734.876   5937539.633    1773.776    460755.024   5937554.003    1812.016
   460909.725   5937634.101    1781.204    461019.314   5937733.866    1986.329
   461183.827   5937817.612    1974.529    461195.323   5937827.016    2003.439
   461339.416   5937900.917    1926.144    461352.120   5937910.437    1962.535
   461503.824   5937993.356    1916.228    461516.417   5938002.542    1955.415
   461668.886   5938087.687    1914.657    461681.284   5938096.412    1953.129
   461832.910   5938182.339    1913.327    461846.074   5938190.894    1952.755
   461996.364   5938277.520    1918.457    462011.053   5938285.915    1958.058
   462156.864   5938371.839    1921.194    462174.242   5938380.267    1960.356
   457107.674   5935005.447    1718.126    457107.674   5935005.447    1755.448
   457440.363   5935197.362    1723.811    457442.143   5935198.715    1761.200
   457772.875   5935389.335    1733.287    457776.789   5935391.925    1770.675
   458105.125   5935581.224    1731.957    458111.699   5935585.220    1769.456
   458353.232   5935724.582    1735.873    458362.420   5935729.862    1773.471
   458601.044   5935867.808    1735.117    458613.436   5935874.636    1772.624
   458777.734   5935969.986    1737.574    458793.487   5935978.422    1775.340
   458954.256   5936072.040    1740.589    458973.702   5936082.329    1778.461
   459131.128   5936174.076    1742.338    459153.549   5936186.246    1778.097
   459307.895   5936275.720    1723.918    459333.575   5936290.595    1759.151
   459482.843   5936376.751    1694.103    459512.633   5936393.951    1729.698
   459656.162   5936479.242    1710.128    459685.420   5936491.288    1747.428
   459830.875   5936581.739    1713.209    459859.516   5936590.185    1751.071
   460005.950   5936683.565    1714.316    460033.381   5936689.785    1750.020
   460180.257   5936784.566    1713.214    460207.909   5936790.180    1751.679
   460355.218   5936884.966    1713.989    460381.690   5936891.160    1753.006
   460530.761   5936984.822    1725.807    460554.972   5936992.698    1764.356
   460706.014   5937084.340    1730.567    460728.506   5937094.553    1770.671
   460881.015   5937184.096    1753.594    460902.427   5937196.237    1793.746
   461054.685   5937284.254    1759.319    461177.281   5937355.035    1982.817
   461218.743   5937378.974    1736.515    461329.015   5937442.639    1970.672
   461479.895   5937529.031    1915.617    461495.078   5937539.235    1954.860
   461640.573   5937620.658    1915.824    461653.673   5937631.939    1954.214
   461800.341   5937712.521    1912.601    461813.179   5937724.410    1951.829
   461959.620   5937804.840    1917.243    461973.172   5937816.422    1956.740
   462118.623   5937897.477    1921.194    462133.445   5937908.119    1960.319
   462277.524   5937990.261    1922.729    462293.819   5937999.669    1961.222
   457254.750   5934750.705    1717.600    457254.750   5934750.705    1754.929
   457587.042   5934942.456    1716.904    457589.614   5934944.137    1754.251
   457919.092   5935134.274    1721.586    457924.723   5935137.503    1759.017
   458250.769   5935325.994    1730.634    458260.198   5935330.965    1768.265
   458498.419   5935469.317    1733.264    458511.382   5935475.643    1770.564
   458745.542   5935612.496    1732.684    458763.091   5935620.464    1770.286
   458932.766   5935721.253    1735.781    458954.979   5935730.589    1773.489
   459120.184   5935830.058    1733.279    459146.643   5935840.653    1768.666
   459306.598   5935937.872    1719.589    459339.399   5935951.743    1755.968
   459442.451   5936013.775    1669.744    459530.425   5936064.566    1755.419
   459619.980   5936116.272    1680.589    459689.513   5936156.416    1761.653
   459787.690   5936217.811    1697.534    459825.744   5936230.377    1738.114
   459961.348   5936319.796    1702.004    459995.306   5936326.547    1736.435
   460132.227   5936420.175    1699.558    460167.698   5936424.319    1736.777
   460302.926   5936520.054    1700.291    460340.148   5936522.574    1739.450
   460476.376   5936618.819    1702.566    460509.922   5936621.951    1739.069
   460650.971   5936716.222    1708.549    460678.425   5936722.670    1747.025
   460825.634   5936813.414    1717.779    460846.986   5936823.625    1757.402
   460999.583   5936910.992    1731.551    461016.219   5936924.184    1772.086
   461172.662   5937009.889    1739.167    461186.322   5937023.423    1778.897
   461342.129   5937110.555    1745.656    461415.799   5937153.088    1949.051
   461512.818   5937209.102    1740.512    461564.282   5937238.815    1932.067
   461721.531   5937324.354    1882.805    461730.941   5937340.329    1924.286
   461885.402   5937418.672    1904.103    461896.242   5937436.041    1946.482
   462049.259   5937514.876    1920.368    462061.541   5937529.847    1959.952
   462212.737   5937611.135    1921.635    462227.247   5937623.643    1961.043
   462376.942   5937708.004    1920.280    462392.226   5937716.828    1953.749
   457353.169   5934580.237    1719.986    457353.169   5934580.237    1757.322
   457684.990   5934771.943    1717.078    457688.377   5934773.653    1754.364
   458016.384   5934963.561    1717.210    458023.667   5934966.973    1754.582
   458347.861   5935155.365    1722.270    458359.950   5935160.659    1759.771
   458595.194   5935298.726    1728.968    458612.011   5935305.415    1766.721
   458841.620   5935442.002    1733.593    458863.853   5935450.021    1770.868
   459033.554   5935548.607    1732.103    459061.787   5935557.436    1769.448
   459221.814   5935653.635    1726.017    459254.941   5935662.405    1759.050
   459399.425   5935754.798    1709.967    459444.396   5935764.089    1746.927
   459507.696   5935846.222    1656.060    459649.257   5935862.616    1757.814
   459696.356   5935942.256    1666.628    459741.866   5935952.766    1705.921
   459877.076   5936044.191    1685.207    459918.795   5936052.768    1722.931
   460050.729   5936145.092    1689.643    460091.292   5936150.741    1727.117
   460226.866   5936246.098    1696.602    460268.312   5936248.718    1734.637
   460398.550   5936346.653    1704.500    460469.202   5936344.709    1764.168
   460569.936   5936445.244    1712.859    460616.906   5936446.435    1750.089
   460745.993   5936538.181    1702.191    460775.103   5936545.570    1740.981
   460920.027   5936633.788    1713.435    460936.929   5936646.074    1751.812
   461091.058   5936730.176    1722.401    461099.689   5936747.336    1762.724
   461261.444   5936832.059    1740.702    461262.727   5936852.526    1779.186
   461440.612   5936890.049    1688.090    461420.667   5936960.623    1796.623
   461616.258   5936967.852    1683.613    461580.818   5937134.097    1932.990
   461768.840   5937157.448    1853.067    461771.419   5937183.531    1898.634
   461941.136   5937248.033    1882.369    461948.955   5937270.051    1925.834
   462111.054   5937338.834    1907.691    462122.648   5937356.875    1949.320
   462280.100   5937428.939    1922.647    462294.594   5937442.688    1961.197
   462447.433   5937517.053    1915.267    462462.795   5937525.904    1944.066
   457451.589   5934409.769    1720.540    457451.589   5934409.769    1757.876
   457783.183   5934601.509    1719.764    457787.283   5934603.261    1757.082
   458114.122   5934793.054    1716.693    458122.842   5934796.606    1753.969
   458445.099   5934984.755    1717.579    458459.553   5934990.333    1755.049
   458691.375   5935127.898    1721.394    458711.297   5935134.800    1758.929
   458937.746   5935271.386    1727.368    458964.567   5935279.701    1765.146
   459136.231   5935377.174    1730.171    459167.567   5935385.211    1764.310
   459321.351   5935478.934    1715.356    459358.080   5935486.273    1745.701
   459410.492   5935567.537    1646.689    459582.212   5935589.406    1755.279
   459589.971   5935668.984    1646.152    459752.003   5935688.100    1753.825
   459772.611   5935767.828    1646.646    459822.208   5935775.290    1684.715
   459956.211   5935869.276    1661.279    460001.518   5935875.613    1699.071
   460134.642   5935970.228    1670.991    460178.043   5935974.506    1708.461
   460316.806   5936070.831    1684.013    460359.049   5936072.593    1721.227
   460478.374   5936169.942    1682.383    460560.277   5936167.766    1754.714
   460673.518   5936266.184    1707.200    460706.841   5936269.749    1743.397
   460842.171   5936359.134    1698.095    460863.785   5936368.691    1736.955
   461014.604   5936453.650    1708.479    461023.856   5936469.049    1747.097
   461183.630   5936548.298    1717.032    461182.753   5936570.488    1757.958
   461355.939   5936627.241    1700.447    461333.413   5936695.072    1796.351
   461522.862   5936716.092    1697.419    461501.147   5936784.280    1799.459
   461687.509   5936793.150    1684.494    461657.738   5936956.119    1919.339
   461847.715   5936873.928    1679.720    461827.230   5937027.962    1887.283
   462003.052   5937071.261    1858.223    462008.384   5937098.250    1902.568
   462173.336   5937156.248    1885.898    462184.383   5937177.796    1929.353
   462340.076   5937239.006    1897.193    462355.385   5937254.757    1937.699
   462510.896   5937323.657    1922.514    462528.750   5937333.343    1954.064
   457550.009   5934239.300    1719.558    457550.009   5934239.300    1756.877
   457881.393   5934431.052    1720.929    457886.094   5934432.837    1758.275
   458212.339   5934622.695    1719.543    458222.287   5934626.357    1756.840
   458542.584   5934814.192    1716.384    458558.908   5934819.959    1753.626
   458788.528   5934957.338    1717.119    458811.012   5934964.451    1754.545
   459034.444   5935100.773    1720.766    459064.709   5935109.375    1758.291
   459236.669   5935206.145    1720.002    459272.862   5935214.548    1754.174
   459430.623   5935309.079    1714.070    459476.015   5935317.480    1747.539
   459502.563   5935393.323    1639.971    459685.751   5935419.717    1754.414
   459676.802   5935494.146    1630.229    459724.205   5935500.400    1661.829
   459847.752   5935593.394    1617.522    459894.810   5935599.382    1651.659
   460024.887   5935694.024    1622.152    460072.004   5935699.116    1659.289
   460204.324   5935794.957    1634.257    460249.712   5935798.328    1672.183
   460392.245   5935895.438    1656.173    460436.057   5935896.872    1693.914
   460563.313   5935993.659    1664.984    460653.714   5935993.226    1745.257
   460775.832   5936089.158    1706.016    460803.243   5936094.408    1742.489
   460941.899   5936181.872    1700.342    460955.457   5936193.629    1739.434
   461110.663   5936276.276    1711.430    461109.684   5936294.632    1750.202
   461284.305   5936351.660    1689.178    461259.187   5936403.522    1770.882
   461441.529   5936453.395    1707.037    461419.679   5936510.351    1791.093
   461603.941   5936532.515    1701.188    461597.452   5936561.215    1738.656
   461764.782   5936607.798    1690.702    461760.320   5936643.420    1734.390
   461923.475   5936683.393    1680.921    461910.481   5936843.880    1874.563
   462074.604   5936871.550    1817.656    462080.109   5936906.201    1866.635
   462238.428   5936962.507    1848.324    462249.403   5936987.768    1892.978
   462400.907   5937046.029    1866.312    462416.185   5937063.270    1907.799
   462566.276   5937127.802    1889.239    462585.941   5937138.007    1930.563
   457648.429   5934068.832    1721.198    457648.429   5934068.832    1758.476
   457979.483   5934260.537    1719.357    457984.663   5934262.337    1756.662
   458310.443   5934452.253    1721.044    458321.384   5934455.979    1758.402
   458640.251   5934643.652    1719.331    458658.081   5934649.562    1756.606
   458887.339   5934787.175    1716.779    458911.587   5934794.416    1754.001
   459132.201   5934930.297    1713.189    459163.781   5934938.912    1749.281
   459340.540   5935036.632    1714.065    459382.323   5935046.018    1750.555
   459425.728   5935119.724    1633.273    459597.894   5935150.859    1745.486
   459600.830   5935220.622    1631.264    459779.472   5935249.915    1744.562
   459777.125   5935321.947    1622.505    459825.112   5935328.602    1654.161
   459934.036   5935420.375    1599.296    459980.195   5935425.766    1632.381
   460102.781   5935520.483    1596.134    460149.039   5935524.642    1631.148
   460269.929   5935620.558    1599.516    460317.827   5935623.287    1638.326
   460463.295   5935721.067    1625.274    460592.861   5935723.218    1734.559
   460635.952   5935817.324    1634.721    460755.718   5935818.972    1738.525
   460875.766   5935913.252    1703.521    460898.971   5935920.153    1741.251
   461040.171   5936006.835    1706.247    461045.134   5936020.320    1744.388
   461218.143   5936079.087    1675.044    461185.904   5936125.219    1757.291
   461371.568   5936180.831    1696.279    461341.703   5936230.680    1779.253
   461528.263   5936267.987    1704.190    461519.445   5936298.343    1743.696
   461686.601   5936350.461    1706.674    461682.135   5936385.062    1744.625
   461843.849   5936426.180    1699.398    461842.349   5936466.188    1740.193
   461998.733   5936495.783    1688.024    462000.553   5936658.774    1851.428
   462151.373   5936671.828    1785.893    462157.858   5936709.178    1831.176
   462308.113   5936767.716    1819.325    462319.627   5936796.215    1864.074
   462461.387   5936850.176    1831.318    462476.852   5936868.920    1873.299
   462616.392   5936930.545    1857.933    462636.198   5936940.785    1899.623
   457746.850   5933898.363    1715.800    457746.850   5933898.363    1753.006
   458077.879   5934090.119    1721.192    458083.432   5934091.910    1758.473
   458408.202   5934281.678    1719.179    458419.863   5934285.402    1756.507
   458738.143   5934473.162    1721.158    458757.029   5934479.115    1758.529
   458987.854   5934617.416    1719.598    459013.196   5934624.699    1756.857
   459230.259   5934759.788    1703.623    459262.600   5934768.494    1739.474
   459439.427   5934866.697    1705.301    459482.921   5934876.744    1743.011
   459525.432   5934948.150    1621.393    459686.012   5934980.575    1729.960
   459696.840   5935048.755    1616.841    459748.749   5935057.637    1651.141
   459869.591   5935149.672    1609.787    459915.422   5935156.112    1638.672
   460027.271   5935248.460    1589.944    460074.008   5935253.569    1624.285
   460194.221   5935348.477    1584.352    460241.463   5935352.108    1622.061
   460365.428   5935448.374    1590.114    460412.385   5935450.436    1628.415
   460539.580   5935546.787    1598.355    460687.764   5935549.650    1720.736
   460806.946   5935643.782    1689.981    460840.717   5935647.756    1729.500
   460971.611   5935739.233    1698.983    460987.074   5935747.911    1737.706
   461132.845   5935835.104    1709.917    461130.960   5935849.159    1747.791
   461302.619   5935913.230    1684.904    461269.923   5935956.510    1767.701
   461459.069   5936000.224    1693.528    461447.820   5936027.631    1733.444
   461615.333   5936087.823    1704.782    461609.259   5936122.581    1744.282
   461771.636   5936169.130    1706.363    461770.352   5936211.401    1746.268
   461926.013   5936245.679    1704.625    461928.567   5936293.050    1743.907
   462078.148   5936313.039    1694.272    462091.375   5936472.797    1825.036
   462232.408   5936480.323    1765.615    462240.523   5936521.208    1808.496
   462382.047   5936574.007    1789.918    462394.295   5936605.206    1834.356
   462526.777   5936655.803    1799.854    462541.818   5936675.313    1840.703
   462669.864   5936734.184    1822.488    462689.158   5936744.286    1870.930
   457845.270   5933727.895    1704.040    457845.270   5933727.895    1741.139
   458175.917   5933919.582    1717.220    458181.754   5933921.343    1754.556
   458506.795   5934111.359    1721.146    458518.946   5934115.017    1758.431
   458836.280   5934302.743    1719.194    458855.732   5934308.598    1756.526
   459088.063   5934447.523    1719.930    459112.778   5934454.393    1755.772
   459328.758   5934589.378    1695.914    459360.928   5934597.963    1732.361
   459527.745   5934694.457    1688.437    459562.895   5934702.956    1719.928
   459623.263   5934775.668    1606.214    459768.731   5934809.261    1711.111
   459791.811   5934876.825    1604.017    459845.837   5934886.591    1642.147
   459965.102   5934978.199    1602.073    460012.337   5934984.790    1634.819
   460128.670   5935077.891    1589.826    460175.583   5935082.589    1625.518
   460301.170   5935178.215    1589.565    460346.071   5935180.995    1625.564
   460469.115   5935278.029    1587.447    460601.039   5935280.706    1696.976
   460638.168   5935373.259    1590.780    460782.587   5935376.475    1709.621
   460906.395   5935470.663    1686.754    460932.288   5935475.596    1725.190
   461067.977   5935567.355    1700.537    461074.529   5935576.593    1738.281
   461236.416   5935648.497    1668.425    461208.438   5935678.856    1746.822
   461389.790   5935745.866    1690.019    461358.055   5935785.433    1773.500
   461548.488   5935825.030    1690.676    461539.523   5935853.988    1730.497
   461704.637   5935908.812    1699.188    461701.401   5935948.453    1740.091
   461859.260   5935991.812    1706.537    461862.091   5936042.590    1747.099
   462009.653   5936055.764    1703.369    462034.511   5936223.403    1808.185
   462163.704   5936128.806    1691.875    462181.784   5936281.480    1798.902
   462318.319   5936293.904    1750.067    462328.582   5936340.057    1793.718
   462463.510   5936386.474    1769.717    462476.878   5936419.839    1813.835
   462601.809   5936466.767    1780.719    462617.804   5936487.500    1821.361
   462737.093   5936542.109    1808.847    462756.217   5936552.153    1846.671
   457943.689   5933557.427    1695.715    457943.689   5933557.427    1732.665
   458273.364   5933748.887    1705.082    458279.372   5933750.584    1742.283
   458604.722   5933940.839    1718.375    458617.235   5933944.385    1755.758
   458934.577   5934132.383    1721.074    458954.275   5934138.021    1758.306
   459185.496   5934276.863    1712.860    459211.113   5934283.705    1749.964
   459429.255   5934419.530    1691.983    459457.221   5934426.861    1724.309
   459606.356   5934519.667    1663.675    459640.830   5934528.238    1696.165
   459726.779   5934605.630    1598.197    459845.770   5934635.260    1691.073
   459894.504   5934706.997    1598.634    459942.380   5934715.807    1634.722
   460065.465   5934808.110    1597.743    460110.146   5934814.008    1630.014
   460227.450   5934907.752    1584.654    460272.889   5934911.643    1621.102
   460399.889   5935007.754    1586.251    460444.279   5935009.826    1622.670
   460572.073   5935106.156    1586.809    460697.052   5935108.933    1691.739
   460828.767   5935203.007    1666.667    460859.075   5935205.426    1701.617
   460998.095   5935299.106    1682.989    461014.006   5935304.621    1722.024
   461158.325   5935396.521    1699.879    461157.223   5935405.001    1735.615
   461324.670   5935480.447    1670.176    461294.174   5935510.159    1758.182
   461482.875   5935567.526    1680.416    461471.525   5935588.678    1720.459
   461641.571   5935647.013    1679.236    461634.939   5935677.825    1719.291
   461797.244   5935728.606    1686.924    461796.185   5935771.556    1728.884
   461951.067   5935810.793    1697.028    461956.648   5935868.276    1740.123
   462101.460   5935879.283    1698.647    462130.679   5936044.148    1794.181
   462266.565   5936037.163    1741.327    462277.624   5936095.228    1783.410
   462413.248   5936122.209    1744.212    462425.170   5936166.839    1786.065
   462555.314   5936206.285    1751.254    462569.086   5936238.383    1793.004
   462690.524   5936283.869    1757.852    462706.630   5936304.551    1798.994
   462821.625   5936357.007    1780.696    462840.787   5936367.068    1824.766
   458042.109   5933386.958    1678.942    458042.109   5933386.958    1715.700
   458371.243   5933578.342    1697.526    458377.358   5933579.952    1734.623
   458701.303   5933769.982    1706.149    458713.987   5933773.343    1743.450
   459032.871   5933962.046    1719.294    459052.822   5933967.420    1756.767
   459285.270   5934106.864    1710.323    459310.234   5934113.156    1746.658
   459528.290   5934249.370    1677.549    459555.065   5934256.094    1709.157
   459693.098   5934347.014    1646.130    459725.411   5934355.006    1678.644
   459832.260   5934437.621    1596.952    459916.845   5934459.201    1669.853
   459996.461   5934537.928    1596.017    460041.912   5934546.026    1633.086
   460163.331   5934638.469    1592.130    460208.476   5934643.696    1628.441
   460332.554   5934739.085    1589.177    460377.986   5934741.819    1626.788
   460505.059   5934839.050    1589.101    460610.912   5934840.604    1678.065
   460677.021   5934934.747    1590.686    460789.602   5934937.268    1685.547
   460922.288   5935031.347    1661.384    460948.971   5935034.408    1700.611
   461092.288   5935127.744    1678.826    461099.511   5935133.315    1717.953
   461263.880   5935216.327    1652.594    461230.331   5935236.124    1739.867
   461419.988   5935308.878    1661.347    461388.661   5935333.838    1748.744
   461578.229   5935393.226    1672.150    461568.155   5935413.871    1711.835
   461737.434   5935472.426    1669.689    461731.807   5935503.291    1710.444
   461893.496   5935554.444    1678.291    461893.230   5935596.803    1720.182
   462047.404   5935635.565    1686.074    462053.756   5935691.785    1729.476
   462196.023   5935699.802    1683.586    462230.464   5935867.517    1785.552
   462366.701   5935869.149    1734.712    462378.495   5935921.824    1775.332
   462515.336   5935952.933    1735.774    462527.894   5935994.518    1777.189
   462659.512   5936036.418    1743.551    462674.108   5936067.537    1785.883
   462797.352   5936113.772    1751.717    462813.629   5936133.576    1791.286
   462928.825   5936184.048    1765.932    462948.138   5936194.202    1812.422
   458140.530   5933216.489    1666.461    458140.530   5933216.489    1702.981
   458468.449   5933407.658    1680.902    458474.607   5933409.157    1717.829
   458798.946   5933599.470    1698.697    458811.688   5933602.593    1735.858
   459130.987   5933791.702    1711.927    459151.535   5933796.826    1750.429
   459388.452   5933937.671    1719.517    459412.697   5933943.277    1754.948
   459627.341   5934079.322    1666.922    459652.851   5934085.206    1697.382
   459777.098   5934174.200    1627.115    459810.111   5934181.968    1663.066
   459929.173   5934268.829    1602.951    459967.411   5934279.416    1640.374
   460092.625   5934368.525    1593.646    460134.799   5934375.338    1629.528
   460262.086   5934469.457    1592.925    460311.302   5934474.003    1634.916
   460445.321   5934571.233    1600.471    460529.511   5934572.954    1673.526
   460611.820   5934667.971    1598.278    460705.865   5934669.704    1677.701
   460836.118   5934764.733    1643.752    460869.009   5934766.250    1681.937
   461014.530   5934860.907    1661.170    461032.704   5934863.838    1700.828
   461184.546   5934957.622    1679.749    461186.045   5934962.437    1719.606
   461358.182   5935047.632    1650.569    461321.316   5935063.363    1739.835
   461516.196   5935135.393    1660.051    461502.988   5935147.836    1699.057
   461676.039   5935221.446    1668.075    461666.219   5935241.946    1708.345
   461836.344   5935302.280    1664.098    461830.659   5935331.300    1703.779
   461994.024   5935383.269    1667.553    461992.908   5935422.902    1709.776
   462148.893   5935459.980    1667.958    462153.475   5935511.048    1711.727
   462298.957   5935530.976    1665.508    462329.757   5935687.074    1776.815
   462471.818   5935700.411    1723.484    462482.302   5935747.556    1764.536
   462624.064   5935784.611    1721.310    462636.801   5935824.547    1765.965
   462773.170   5935871.521    1730.113    462788.762   5935901.732    1774.192
   462915.318   5935950.553    1735.702    462934.138   5935970.976    1776.036
   463055.609   5936024.888    1758.302    463075.132   5936035.207    1784.779
   458238.949   5933046.021    1667.154    458238.949   5933046.021    1703.391
   458565.928   5933237.092    1666.789    458572.059   5933238.456    1703.373
   458895.147   5933428.684    1682.893    458907.914   5933431.539    1719.987
   459229.083   5933621.396    1708.414    459250.283   5933626.196    1748.062
   459488.030   5933767.539    1723.836    459511.651   5933772.362    1758.344
   459725.403   5933909.228    1674.142    459751.606   5933914.359    1705.525
   459874.568   5934004.812    1634.283    459906.975   5934010.691    1667.835
   460030.877   5934101.751    1616.432    460069.681   5934108.254    1653.163
   460191.615   5934200.311    1597.759    460232.651   5934205.039    1635.453
   460366.828   5934300.570    1602.776    460412.848   5934303.683    1644.065
   460544.106   5934399.716    1605.990    460624.556   5934402.170    1678.195
   460750.124   5934497.527    1633.860    460784.510   5934498.588    1671.225
   460927.950   5934593.950    1636.876    460952.224   5934595.380    1675.795
   461106.853   5934690.578    1658.375    461118.031   5934692.892    1697.746
   461276.549   5934787.586    1679.993    461273.543   5934791.203    1720.212
   461452.951   5934879.312    1649.155    461413.714   5934890.710    1739.680
   461613.385   5934965.904    1656.259    461600.019   5934977.429    1695.459
   461776.044   5935051.106    1656.970    461766.097   5935069.816    1696.171