SPECGRID
    1    2    6        1    F
/
COORD
    0    0    0        0    0    1
    1    0    0        1    0    1
    0    1    0        0    1    1
    1    1    0        1    1    1
    0    2    0        0    2    1
    1    2    0        1    2    1
/
ZCORN
    0.0 0.0  0.0 0.0  0.0 0.0  0.0 0.0
    0.1 0.1  0.1 0.1  0.1 0.1  0.1 0.1
    0.1 0.1  0.1 0.1  0.1 0.1  0.1 0.1
    0.4 0.2  0.4 0.2  0.2 0.4  0.2 0.4
    0.4 0.2  0.4 0.2  0.2 0.4  0.2 0.4
    0.5 0.3  0.5 0.3  0.3 0.5  0.3 0.5
    0.5 0.3  0.5 0.3  0.3 0.5  0.3 0.5
    0.6 0.8  0.6 0.8  0.8 0.6  0.8 0.6
    0.6 0.8  0.6 0.8  0.8 0.6  0.8 0.6
    0.7 0.9  0.7 0.9  0.9 0.7  0.9 0.7
    0.7 0.9  0.7 0.9  0.9 0.7  0.9 0.7
    1.0 1.0  1.0 1.0  1.0 1.0  1.0 1.0
/
ACTNUM
    12*1
/
PORO
    12*0.6
/
PERMX
    12*100
/
PERMY
    12*100
/
PERMZ
    12*100
/
