SPECGRID
  1  1  1   1  F  /

COORD
   456719.738   5935677.371    1734.553    456719.738   5935677.371    1771.988
   457053.317   5935869.963    1735.117    457053.317   5935869.963    1772.622
   456913.707   5935341.409    1731.402    456913.707   5935341.409    1768.753
   457246.740   5935534.107    1732.191    457247.938   5935533.860    1769.584
  /

ZCORN
   1734.553    1735.117
   1731.402    1732.191
   1747.031    1747.619
   1743.853    1744.655
  /

ACTNUM
   1
   /
PORO
   0.6
   /
PERMX
   100
   /
PERMY
   100
   /
PERMZ
   100
   /
