SPECGRID
   4   3   3   1   F   /

COORD
    0    0    0    0    0   99
   25    0    0   25    0   99
   50    0    0   50    0   99
   75    0    0   75    0   99
   99    0    0   99    0   99
    0   33    0    0   33   99
   25   33    0   25   33   99
   50   33    0   50   33   99
   75   33    0   75   33   99
   99   33    0   99   33   99
    0   66    0    0   66   99
   25   66    0   25   66   99
   50   66    0   50   66   99
   75   66    0   75   66   99
   99   66    0   99   66   99
    0   99    0    0   99   99
   25   99    0   25   99   99
   50   99    0   50   99   99
   75   99    0   75   99   99
   99   99    0   99   99   99
/

ZCORN
    0    0    0    0    0    0    0    0
    0    0    0    0    0    0    0    0
    0    0    0    0    0    0    0    0
    0    0    0    0    0    0    0    0
    0    0    0    0    0    0    0    0
    0    0    0    0    0    0    0    0

   33   33   33   33   33   33   33   33
   33   33   33   40   40   33   33   33
   33   33   33   40   40   33   33   33
   33   33   33   40   40   33   33   33
   33   33   33   40   40   33   33   33
   33   33   33   33   33   33   33   33
   
   33   33   33   33   33   33   33   33
   33   33   33   40   40   33   33   33
   33   33   33   40   40   33   33   33
   33   33   33   40   40   33   33   33
   33   33   33   40   40   33   33   33
   33   33   33   33   33   33   33   33

   66   66   66   66   66   66   66   66
   66   66   66   60   60   66   66   66
   66   66   66   60   60   66   66   66
   66   66   66   60   60   66   66   66
   66   66   66   60   60   66   66   66
   66   66   66   66   66   66   66   66

   66   66   66   66   66   66   66   66
   66   66   66   60   60   66   66   66
   66   66   66   60   60   66   66   66
   66   66   66   60   60   66   66   66
   66   66   66   60   60   66   66   66
   66   66   66   66   66   66   66   66

   99   99   99   99   99   99   99   99
   99   99   99   99   99   99   99   99
   99   99   99   99   99   99   99   99
   99   99   99   99   99   99   99   99
   99   99   99   99   99   99   99   99
   99   99   99   99   99   99   99   99
/

ACTNUM
    1    1    1    1    1    1    1    1    1    1    1    1
    1    1    1    1    1    1    1    1    1    1    1    1
    1    1    1    1    1    1    1    1    1    1    1    1
/

PORO	
    1    1    1    1    1    1    1    1    1    1    1    1
    1    1    1    1    1    1    1    1    1    1    1    1
    1    1    1    1    1    1    1    1    1    1    1    1
/

PERMX
    1    1    1    1    1    1    1    1    1    1    1    1
    1    1    1    1    1    1    1    1    1    1    1    1
    1    1    1    1    1    1    1    1    1    1    1    1
/

PERMY
    1    1    1    1    1    1    1    1    1    1    1    1
    1    1    1    1    1    1    1    1    1    1    1    1
    1    1    1    1    1    1    1    1    1    1    1    1
/

PERMZ
    1    1    1    1    1    1    1    1    1    1    1    1
    1    1    1    1    1    1    1    1    1    1    1    1
    1    1    1    1    1    1    1    1    1    1    1    1
/
