SPECGRID
  4  1  2   1  F  /

COORD
       -0.001        -0.001     655.000        -0.001        -0.001     965.000
      249.999        -0.001     550.000       249.999        -0.001     965.000
      499.999        -0.001     550.000       499.999        -0.001     965.001
      749.999        -0.001     550.000       749.999        -0.001     965.001
      999.999        -0.001     550.000       999.999        -0.001     860.000
       -0.001       799.999     655.000        -0.001       799.999     965.000
      249.999       799.999     550.000       249.999       799.999     965.000
      499.999       799.999     550.000       499.999       799.999     965.000
      749.999       799.999     550.000       749.999       799.999     965.000
      999.999       799.999     550.000       999.999       799.999     860.000
  /

ZCORN
    655.000     655.000     550.000     550.000     550.000     550.000 
    550.000     550.000 
    655.000     655.000     550.000     550.000     550.000     550.000 
    550.000     550.000 
    810.000     810.000     757.500     757.500     757.500     757.500 
    705.000     705.000 
    810.000     810.000     757.500     757.500     757.500     757.500 
    705.000     705.000     810.000     810.000     757.500     757.500 
    757.500     757.500     705.000     705.000 
    810.000     810.000     757.500     757.500     757.500     757.500 
    705.000     705.000 
    965.000     965.000     965.000     965.001     965.001     965.001 
    860.000     860.000 
    965.000     965.000     965.000     965.000     965.000     965.000 
    860.000     860.000 
  /

ACTNUM
1 1 1 1 
1 1 1 1 
  /


PERMX
              400              400              400              400
              400              400              400              400
  /

PERMY
              400              400              400              400
              400              400              400              400
  /

PERMZ
               40               40               40               40
               40               40               40               40
  /

PORO
      0.200000003      0.200000003      0.200000003      0.200000003
      0.200000003      0.200000003      0.200000003      0.200000003
  /
